# vtk DataFile Version 2.0
Unstructured grid legacy vtk file with point scalar data
ASCII

DATASET UNSTRUCTURED_GRID
POINTS 1222 double 
46.196522163291434 65.35642163805396 188.1959360759227
32.209977712993116 61.10919959829515 43.179750697190215
36.78519939563792 42.699735271493836 23.38039946990435
31.812246359236035 37.687951029950625 107.55284418639303
46.01766878075669 18.33490401013584 91.66871353179448
83.47436112268332 21.583278497068516 124.65972090776613
26.562396650242448 30.25850927558845 119.37821238768313
23.89764504686665 89.27714387244477 190.19222134640657
10.674067297026115 50.18609206570108 16.98875649975344
66.6465121291347 62.52814250545603 130.82317238848762
53.861531153495655 41.560296215064184 63.242585991927356
32.524549233947106 30.006780759053164 138.56034864351756
59.168753768302174 34.84821612388939 184.8718882662347
8.783225807606275 43.70798216970209 118.8251476968781
20.726880632125372 52.24577101168287 164.30889472127535
32.22323130295763 82.17012135429005 108.09456238730623
80.94606369514543 35.72144523708002 20.368713606048672
34.1095791863215 16.402243789925013 114.17227968097079
30.108103853982474 35.013811788807395 153.49800868642532
24.4007950573484 59.4783292630024 133.5884869933492
28.716769739334886 31.073020014098837 18.769774420392828
46.27726267199373 89.0772086698644 10.210619872977873
30.982785039290604 57.30233523897947 110.42701434265751
66.24249035137026 58.91968778015888 105.37496752307091
51.36961770534913 66.60619483387343 73.90991914959551
81.38874450106655 76.64467951704738 47.50529415793274
37.736072051893004 36.85389138632867 183.59777575631009
39.15966529115923 44.59360724393936 52.422142217998015
69.29093085388135 62.81694830140441 87.03211051650517
36.53996913495695 18.582655796948906 160.51535470001332
11.5669114541455 37.18603595678216 107.88038065167505
43.54401226313091 44.09865932575756 103.06340113149473
44.741311489386675 12.25277043748438 172.7803640347751
39.29978971709886 44.01294388692866 86.88471000499366
34.14784450440591 86.20875530302553 13.237276862764611
65.81333788074579 66.02234934821459 13.86183397016945
88.83540725328209 46.60761054144274 22.484159460091778
87.48791053453846 9.58715582476174 100.71485090582549
63.72433795790588 87.95867578432342 188.93633207173374
7.782282859688376 45.3428589297875 173.78239958255264
68.19279163768566 10.012448084442005 174.27092906595917
86.67080648176236 16.822383195966516 12.332214128138707
71.07941559689874 77.65789716677722 133.71485509291517
89.29702841151247 89.61709596397323 40.681663456477274
86.95583920721819 49.650448567821236 141.2873229211778
15.27119441663559 48.229942695596215 149.8939679306969
92.10827624963434 63.68289522300283 23.83590451615084
66.1767239916328 9.901281796477242 146.29939325675537
20.868420851424926 73.09247707519094 16.060460054406533
28.14810010489678 68.62926932676656 173.09054655424748
9.306505900122978 87.31845541317193 125.20038594983825
68.16780501749268 59.449833325353644 30.966909048460764
47.7989250747388 46.31440946586527 128.87438703568543
92.25304557077749 25.33142678579011 172.4967603463749
11.5299236715414 62.19290738987035 50.67546502104118
31.653475896941227 54.455557113810386 10.935171800716125
16.755465116373372 50.909239482704734 76.82375130941014
44.45437036457668 85.84842944160702 40.947118483928556
88.2081071307583 24.654881561856136 185.85148349846838
67.7129073752422 48.71122070715892 160.7094145074221
10.234664629164298 18.623032641009186 44.597891017425
51.04021146887394 13.484828955792032 11.700060850085086
74.75274346113984 71.87730250325592 169.05475616039374
51.083491276920924 92.10163529994614 94.46514555268868
30.661687325247847 88.61627374049627 95.06736517720323
90.33489544336464 12.575203677624037 25.48677898375524
76.60488347938073 85.96027401286791 186.5124751626077
54.27761565806834 79.36582158774982 109.70816069260425
18.755288186618245 11.8953113228184 126.47480027560968
75.70604686431405 88.15556011033438 15.78308864503284
73.00820174236907 21.668081391230047 12.58325230757921
38.3993252456058 71.71995306512996 15.219539384191766
15.976353128026417 17.940088238681426 114.66710103376418
83.60172647158096 74.24798760800753 64.77179099636274
47.61769358060444 75.61011904929953 153.7358656292614
36.52081498218613 62.84604135536896 158.64081981694056
71.58929785248844 81.8719858607907 74.40778308257812
10.961747720729157 31.16601951232926 132.2603407552975
19.137652326045757 42.50554966204935 56.05379821349956
52.625209080714896 31.650902526117953 142.209893852883
28.113989455323726 77.81739742344651 36.755058169756666
80.08772508319704 62.274073388773516 72.85907721517735
83.06898496481838 22.154256824082225 164.18433138474157
76.24623795506494 90.14294263651784 31.43090906400131
18.36208101189059 82.47585929843754 24.919562968967462
81.1835546590402 57.164461064351535 86.27305902060135
18.96576222443497 50.789728549241694 183.02579286265942
36.58693374028652 48.57685735904086 173.09637411885342
66.24695771884609 88.54843313557855 159.6570765114863
22.149769562587217 61.796236374812906 91.23508722964391
33.360269653181234 87.67405390920287 53.610138246995895
85.5450972796425 77.37550769465817 184.09336589445167
29.428815964286002 65.04564346222718 189.06442834770408
81.13919633640768 64.23796109887748 124.04818510396854
45.09777708199916 16.230973558576373 130.1432634385433
8.964133668808293 11.355175811788758 88.30273578799105
15.68607217618489 88.29005853349254 54.41419465796945
59.62385438108418 8.836114837890008 190.73138273166677
26.95595133736703 12.366129423948317 85.42821314563066
60.57194529021711 37.76803518209168 116.55310432474901
80.57656959443798 9.387453964475405 177.2698131129736
69.11660151846372 39.61051941845132 101.69079828835103
88.87581098504221 87.43166555478912 85.64508737795971
71.03374028364941 41.23701725349477 177.5847916470178
24.27360263282037 70.7341077915078 107.22388095778766
59.746156866332704 50.731604054705606 140.59940115637224
54.50473802451455 52.03241423532846 166.58719269625536
19.351200655311523 37.316916029470626 12.67055454256388
92.15009847369004 80.72003213442176 159.85229677288305
78.30123333162362 52.845619357289834 98.87921310615201
10.956364451502532 57.21788299327581 139.37179786637208
8.809994657103294 59.63121864699213 107.47932883268112
35.11252730332343 12.028901273518729 28.389295438789627
49.80331562474054 28.621485359674097 45.56227243379222
48.507852325558254 58.701262352249444 111.69509936992624
38.07985471638259 29.322958756068875 76.60674171963714
14.385169717952035 74.46804319784499 173.56640578202578
34.9087865270184 20.77191316026566 172.93084102443353
17.64696036309543 12.438458497590231 143.91825911773304
28.368592594585465 15.442896025352681 97.57895108313673
40.38472767051645 82.81981749388385 139.91505791500305
66.8149377075085 23.455846135371896 127.25448120320587
34.92555946820363 88.87812708051274 126.94404696328466
44.02853706600719 22.26743462145935 108.54049397296207
92.8229983827074 10.092409127953184 130.97675488599046
61.37858068423711 81.6223208312452 13.29676446960542
67.42174774792737 9.54850572912464 56.86428081095842
27.803347238883912 65.6461519503358 55.44507053930846
53.18672089957856 44.09938711229021 76.67459417753835
57.00884140938285 69.9894326518828 95.31412306836988
17.954695551518608 51.71119573996771 33.60798094849343
90.84465033206834 26.411070576566736 138.63505708790555
33.552643683879026 81.79478287901489 25.072816554184822
85.97973670010978 19.21672942691498 146.3161332389085
74.79983677636903 43.388843072431314 138.24028350814524
38.14791294101492 65.84458786726263 127.0587190180315
19.155365679002205 18.198758129169523 169.17808419193224
10.999780327164153 85.02735388650864 99.4410670860373
11.202856561008513 69.74226098318847 188.08505531485343
31.86242446869845 67.27164821824475 31.374819942811428
9.937070448319522 46.91639827883115 64.73545441444327
8.013346791630166 83.38758560203159 169.4846587655255
49.015413458271865 45.08609555186662 154.21684957251125
37.835136353520305 88.54326187511434 173.83690483819166
77.88257790497948 54.48058131353613 167.01811111314197
43.27510577800621 57.905321739746405 92.45565526036876
69.02144405594457 47.229727736930386 117.17517381266883
87.43269218027241 47.26796143158687 157.84955966617113
76.93870824330692 81.8430233743094 120.2760826696214
13.006522137793764 33.782771668757036 147.8150935356259
42.02532390898913 77.44454665045862 80.56150879360312
48.108169528090144 32.75696433583114 107.97910749821796
74.15485341730349 17.90628715882811 63.27628937417553
34.13625390762774 10.699946321329595 16.82432868191794
80.52489927252864 8.951503751733684 69.24924073456394
58.87125328730432 83.13168662495107 35.853330821847436
70.75732688322964 67.32552355468654 154.88865863080804
32.45706810056771 11.3613820869736 52.31339553632332
69.52841100108633 21.442582320020314 24.471464529085452
69.88664603377073 29.807148512526055 47.79937397347186
61.82341391835533 32.41635677652913 92.85590704147432
50.74550856475989 58.42256776155749 58.91832585422716
36.232642867090966 70.24388333839481 140.41081068998253
18.23931266403301 16.495032511720535 32.99794900865472
84.1326762812318 36.633467226706166 155.24856719981707
56.42129877184284 91.33912077561462 54.29487027214846
39.24065826797118 15.86375178972131 43.98106413482796
73.58001555778833 67.04779613262913 179.52719478135256
53.73996094101361 14.688182738774191 182.21485459584565
87.45359698069724 87.98935923962581 54.53108309992621
85.28381879930357 35.75111861394885 37.95708685257885
42.97223816371137 90.58312576250812 161.04138932453992
60.267896048543804 74.46343919454277 49.471232104226964
25.33042803234769 75.14055450019494 85.11659008476072
64.40257391666124 9.837923338218571 38.10938210855122
76.70286753027762 83.9473129853046 148.55609924652305
6.672612381988087 55.567080493048124 36.29727680432723
44.86868744555336 37.61729393817607 173.0226971453173
68.82128259886602 6.953325778350072 91.3876824103342
[...]
POINT_DATA 1222
SCALARS Diameter double
LOOKUP_TABLE default
11.971466742557853
11.961088802977514
11.933390637078425
11.919680226908058
11.889114459938831
11.883831794612508
11.875517808480588
11.871046287389627
11.856072215588803
11.827198753652613
11.820702729223685
11.80625277234903
11.805533856867358
11.791929089176966
11.785421501201018
11.78108477912407
11.76227587563712
11.733541911030777
11.731850288430978
11.72849997547064
11.725228430283329
11.696848338524273
11.646232282824167
11.621237461641941
11.60791573254692
11.564181691486215
11.562020222044248
11.552389318934644
11.540475624102779
11.530591015533233
11.529146221588327
11.5008631188235
11.474757980730402
11.435315423708342
11.411592815040663
11.408819513735782
11.398282996440468
11.36808322796968
11.335842371989783
11.31735627063033
11.295968377715209
11.291329844695909
11.271059088081056
11.21475699972221
11.211076600466178
11.204188835285084
11.19328753043933
11.169887847660563
11.131256911134692
11.1211670013924
11.120234146653063
11.113131546701803
11.104637041806477
11.0609737589218
11.056280897032632
11.051514788635929
11.046598339283038
11.029132984506962
11.027782910222658
11.000843031912739
10.97917131000515
10.976484233646724
10.975403719809043
10.96878404491388
10.956314936548019
10.942334073372937
10.939026646889017
10.928774560740127
10.901180509469546
10.883418863937031
10.880185666925112
10.876668594080021
10.865754922461235
10.821465638872894
10.772662209346798
10.75912477196572
10.739521564260546
10.737678146485583
10.6607722544276
10.657219512663985
10.657053618414372
10.654799520548423
10.613484495104883
10.610447721925885
10.604774591985217
10.604277608936922
10.59490995451409
10.592374446886854
10.586110968033749
10.577280645997622
10.568838383805076
10.566009570489355
10.545281979594563
10.539956069661475
10.537001496913845
10.520164711648864
10.508243719891512
10.485018530828167
10.468320265204891
10.464569714198742
10.437669371908349
10.430948604807904
10.430653184029946
10.422971150942093
10.422411449627973
10.4032128452154
10.347210427816357
10.346394471540167
10.337691231537875
10.331579829260818
10.316640102465183
10.3133523646293
10.255803808945284
10.245147916103454
10.24274318240688
10.238448094179988
10.202878219226637
10.200530897514488
10.192759306960731
10.191836308902356
10.18497851253047
10.173626927717267
10.154434444378985
10.148739890917494
10.14842988344426
10.146974237352783
10.14290484580378
10.142512308531543
10.131709365109693
10.128244567264012
10.127034061711694
10.118531090766394
10.103242137243305
10.10294426427324
10.099826135504703
10.088568557999833
10.086962467041083
10.0854987374256
10.068196563695848
10.053041683865217
10.050112871328967
10.039390708583527
10.03761491370046
10.02384332853677
10.020508474330597
10.019585498378458
10.017166319491665
10.010119354394817
10.000756838733924
9.990154637470475
9.971086092810515
9.957176548825192
9.934334173633403
9.919057564438454
9.915014438061332
9.90037750563528
9.892663549551344
9.884489950498267
9.882936051627118
9.88127533754053
9.878017790413498
9.874569260065421
9.856511569141029
9.855818947957061
9.852993229428204
9.845452738641312
9.825401067621923
9.805514238034597
9.803409710449204
9.796796644130271
9.795814825415171
9.76810937226434
9.754581170985567
9.747301781312078
9.727764568583478
9.699099351615994
9.695820382185458
9.694404890716685
9.672958897477622
9.665033929217666
9.661001460898
9.659966230959087
9.642850112904148
9.636278878228296
9.630457332980507
9.627064727209145
9.626961996839748
9.602487131556538
9.578687815973602
9.577002960145242
9.562112698709118
9.558797293554756
9.54621038619958
9.539428270773993
9.525958807101034
9.524562550700086
9.516172796846664
9.483293174741931
9.469678596354306
9.464932519685508
9.459773377033775
9.459622719617496
9.453068601006686
9.447497682417142
9.44640661152533
9.442996909752132
9.422869846922449
9.421955165930175
9.39621114853147
9.392670522182165
9.388587567762283
9.383367009236355
9.383130473840753
9.38220734022833
9.38201913564317
9.352452854537894
9.346663135485372
9.34362385474414
9.326915145175796
9.326247172327301
9.31353209590845
9.307436307145128
9.305258823795546
9.294555441164277
9.268387955769473
9.260679997470016
9.25204055455938
9.237570661507563
9.232449569570445
9.23155321760634
9.213782644902796
9.211390903941126
9.209608779191116
9.20873662714224
9.20806801581818
9.1929075545228
9.188520872476785
9.166936999328545
9.166110668799373
9.1643084435629
9.16206236417813
9.142813360867052
9.138103388633688
9.136324263835197
9.13157396091539
9.12658787531726
9.118216595371427
9.111133921637311
9.110660910039952
9.109784681884557
9.10586920793156
9.103352674235426
9.094802820689843
9.069629226612003
9.048069100342156
9.024099448458132
9.023710499392847
9.020938111005878
9.014345925750566
9.013493764534834
9.012656231791157
9.006714248308066
9.00314718390746
8.983605915345196
8.978232592708627
8.977229696438147
8.965380040438177
8.955796419462603
8.954889672535113
8.952488951104925
8.95224076333388
8.950927389535053
8.940367986625347
8.92314832419263
8.909677457337228
8.9044431652631
8.898869112023192
8.893506083752275
8.879784743999446
8.873873215845379
8.873233070864202
8.869998552328944
8.869232862794314
8.867040926584375
8.863995664031377
8.849167795221913
8.843745464688958
8.839478604512696
8.837553054510142
8.837539418832032
8.834550066166363
8.833513493441284
8.819995158983073
8.792163079084961
8.755000616774419
8.750296766989871
8.745979358626416
8.740878336903677
8.7395356896066
8.73380737898242
8.733253289586244
8.720010146003151
8.719690129474262
8.713172774019867
8.709299054938626
8.706311113017499
8.695663000673825
8.692615525761624
8.691365953034609
8.681973768780427
8.677008958354172
8.676054653505823
8.65782463001026
8.656682204599687
8.647833900466134
8.623915116646799
8.62244760472994
8.606613298190922
8.603550000601684
8.599133140494995
8.589044279522136
8.587792777143722
8.584807437603127
8.578993549725658
8.576459614981456
8.572820198524578
8.564917456701535
8.563649286393451
8.557574700733792
8.555531256288074
8.536337414429784
8.513348381911808
8.50991522740726
8.507668929855486
8.495162445377794
8.493867947936781
8.48164314278757
8.4775308747897
8.4742522470074
8.469220673574124
8.46830518698466
8.465737482085755
8.46539003353704
8.45170405761608
8.44880347447003
8.447594604238276
8.442580039189508
8.435117339869908
8.429792416334042
8.423954896311253
8.423069170841702
8.41918575796549
8.413092505854161
8.412057772906191
8.409517821084364
8.40921204125928
8.380565748531708
8.374079647196737
8.37165507714369
8.370101118888073
8.36497513067316
8.357615150967082
8.348321425798478
8.34356846525149
8.342137919937596
8.337110867418216
8.33543748571184
8.334001046515395
8.330033624217457
8.323902089128591
8.314352562061146
8.308396998612693
8.297104395061616
8.288287268641298
8.284485476524065
8.27786585187343
8.271007425748667
8.265079625019357
8.258473429634112
8.255879134400331
8.254987673738663
8.253690542837465
8.251455144776644
8.241982398538326
8.238667589754577
8.235885971086702
8.234168485819325
8.229550953436103
8.22778567511332
8.227636959885748
8.221053554343895
8.210079390064243
8.202036031270469
8.201617687375583
8.19717900093203
8.194250890554335
8.19346343361525
8.183341870779596
8.183178441050359
8.17791125355101
8.171097685602955
8.170769396250563
8.16693959366811
8.159899579770473
8.15518341792638
8.145320639673823
8.140983588821332
8.13732295073523
8.129656122291095
8.123086754373796
8.118400428447416
8.115914014486872
8.11530140682288
8.114948416691142
8.112558721766991
8.108917669867795
8.105268532077325
8.102356018487187
8.09751129311689
8.093229265320529
8.088175081938694
8.078680954013285
8.07682310812696
8.072420757726562
8.069664239307714
8.069539618695938
8.05695837530503
8.056589098384006
8.045306461580612
8.042818406346239
8.04281207950349
8.040397975243279
8.037446440411893
8.026529441235846
8.025295543568227
8.023989060851765
8.0194813080671
8.017124385197958
8.01641276577316
8.016021878823434
8.01361480176368
8.012627089024205
7.993376410685038
7.99239751133544
7.985607538792133
7.985079109121955
7.975361492032983
7.974824850513409
7.972425782595126
7.9613287376012725
7.94753819529471
7.947020219297852
7.940275963610343
7.935673654869152
7.935298154222382
7.9281060010503275
7.917751672042008
7.915364262093014
7.909445191831555
7.908045580837792
7.8964350842978845
7.895302241906212
7.890332721405327
7.890197847998444
7.888278839971045
7.887239739358547
7.88519002613781
7.881040992268378
7.876603762555854
7.875541903415062
7.867548671743914
7.8650210255290816
7.863970098123191
7.860422987924888
7.858220803862293
7.8541227410733025
7.851376989901704
7.8413681261402255
7.837372612351267
7.820003917160445
7.817471557647134
7.815033122127499
7.805310558672192
7.80132953847327
7.795419911668464
7.793654583892128
7.791617269210295
7.791419364244345
7.7912432614629745
7.789511584093269
7.789093744398725
7.7854089465789595
7.784516600284281
7.777483427470626
7.7740200753645565
7.772009723521691
7.7650574092039735
7.763072069829015
7.761404547099341
7.760019780218663
7.755451800367368
7.746877356999893
7.746162472426684
7.7449629256308175
7.743716725177288
7.743426183570046
7.738603112447798
7.7379009575736974
7.732198996506483
7.728365990029568
7.727978939819128
7.721030329221062
7.716081441299776
7.708561586001817
7.702715124613856
7.701424263546418
7.701351372580385
7.696781971668443
7.6947212835899474
7.691710877878659
7.688812652827627
7.681859692556143
7.679435379774551
7.6764414262362894
7.669331697866202
7.659611970619348
7.659129142856004
7.655932796593481
7.651037828274237
7.638142825317193
7.63519776990089
7.6276226830165275
7.626513884374713
7.622824459928159
7.619220054680778
7.6184897332516535
7.618368875025312
7.617368274605054
7.615395608956904
7.615198692591467
7.613525619684594
7.611375593385937
7.610753073656946
7.603695148952541
7.6024286234623535
7.597074965735858
7.590662996446773
7.586503657368128
7.586058606792402
7.584997521347053
7.579816778001879
7.573716554451007
7.572292138011273
7.5678168988860826
7.565930154472451
7.562355318207253
7.56143388941441
7.558843907318741
7.556538295518777
7.553342476876908
7.550566424075189
7.545812608578087
7.543511755155721
7.542989684996584
7.541588338617814
7.539083974074776
7.536234775855277
7.5341931899155234
7.532688044640896
7.5325396368699025
7.532321567516307
7.53183755472212
7.5230756770245755
7.516936230220876
7.499677396372111
7.494534129104637
7.491989401513189
7.487012270440173
7.485713831905846
7.485581465762771
7.484690943586434
7.484458514769944
7.474352322098184
7.474171493355055
7.469927530856019
7.454027358898922
7.4469255594352095
7.444205325833007
7.442780968648492
7.442384338214854
7.437845183739004
7.427398127390477
7.422983395382211
7.420835740736233
7.418010670435363
7.411372958292895
7.40762782325859
7.405445055142188
7.404141406890994
7.399999418358106
7.395678647948411
7.395252214521898
7.394400504717513
7.391070215858628
7.387295570177392
7.3861836482530805
7.38562148050636
7.3855114576122105
7.379843634657307
7.378586110403771
7.378345279239129
7.375935460312748
7.369569230753092
7.365832995160521
7.361394652472292
7.353445389113855
7.344832914609025
7.343723088572584
7.343359138574936
7.342023798544215
7.338476265880567
7.334480253019643
7.333352736849454
7.3287372235763595
7.326552484994304
7.325762777425939
7.321882293985009
7.319578161828727
7.317611035212662
7.317542707192644
7.314100406316387
7.313650268498268
7.313009666638586
7.307079741044726
7.305303512977502
7.301977497807209
7.295329259278133
7.292472851519712
7.292266866954619
7.283619327572334
7.282695824233155
7.280472744921299
7.273768118766538
7.27333445034723
7.268200503326739
7.267100769562866
7.261318511532092
7.258709385032284
7.257815498087588
7.257078613882268
7.2559606986291945
7.250801809897513
7.250507614214397
7.248906923912488
7.2394391934981215
7.238053223898035
7.235714657952931
7.2278423010770485
7.224575866283693
7.222863464375194
7.222716638343497
7.219450956182925
7.214951295350339
7.211085097629056
7.206310200867492
7.205850699969176
7.204941297465972
7.2045264526725035
7.199094315210503
7.197424091922544
7.1959934018937135
7.193033788680252
7.19205871195974
7.185486856547714
7.18534162182652
7.179131230475857
7.177344644724961
7.171764618910052
7.171228082192389
7.170377403112434
7.168198556519988
7.166216396948605
7.163625839223698
7.159758502812513
7.156897421111712
7.148328457714211
7.147356104422119
7.142006823006277
7.141599752685231
7.1406960636674395
7.1373367175411095
7.136124991099977
7.131776680927913
7.1254714810049276
7.1243387198543005
7.121163764165559
7.115332032662251
7.111199933604119
7.101827060311344
7.101610589045551
7.098923931783473
7.0985586369862235
7.0970975373295575
7.095020290788775
7.0942299182787485
7.085047035666667
7.084677106432965
7.082928897671047
7.082379571084614
7.078100612769363
7.069591741136233
7.067618648352447
7.0657570735478785
7.063960470388858
7.058930589296793
7.057193575601337
7.056621819231545
7.054022069413618
7.05132898920872
7.045656617097884
7.040288783429389
7.034849129731285
7.0332970916264355
7.030313279378381
7.028552439209041
7.02577653088631
7.025061369531224
7.022106529116719
7.012503134950101
7.009058059829807
7.008087604557292
7.007657987908905
7.006163563461136
7.00479579056705
7.004783181183992
6.994534579817078
6.992588171928922
6.9923454379958025
6.992328114997365
6.990693296908725
6.988428818005212
6.987664159663103
6.985277768859774
6.983066055618628
6.974919195215053
6.97248867564277
6.968691015747117
6.967974434392319
6.965922344493979
6.962533185889382
6.959804675494704
6.95911153661574
6.955036467745792
6.952684618773857
6.951082015869118
6.949279342053776
6.948960012779374
6.948438125865319
6.942867151359596
6.939534358884986
6.93806966768231
6.936137186377067
6.935420793679327
6.933374975209024
6.932622963576362
6.923238828304457
6.922078289557033
6.91672232651064
6.91663762159015
6.913740566722984
6.910580877830535
6.907640259988161
6.903019758746893
6.9016714038358415
6.901647934975884
6.90056172228636
6.9002217986888414
6.8930915130955235
6.891439927520923
6.889017268580248
6.880825151133017
6.879284077769544
6.878289764329378
6.875629447055555
6.8756208280383895
6.867206712320636
6.864739553269081
6.864368331772582
6.862659008766707
6.858517480760732
6.8560001705407805
6.855156474718559
6.854743472496965
6.851893866607
6.850038472204194
6.84731442797307
6.842240838110426
6.839814341293948
6.837634243573406
6.83224366036661
6.831813052346942
6.831559701625402
6.830369723323372
6.8286269936044
6.825614571851423
6.824307370129453
6.824060407297335
6.820586848743108
6.814860622331956
6.810854498482435
6.810474846323478
6.805916516821498
6.803519686286024
6.8028978672697304
6.798900108230269
6.792785243836217
6.7919039279295745
6.791740930336012
6.790439659091579
6.790258678409227
6.785924887911198
6.780510333557476
6.779057637375039
6.775693574510588
6.7741355599218
6.7706637558365586
6.76927852217876
6.768479003100545
6.767751224954724
6.767080002554989
6.759788957657752
6.7588140540184245
6.758426794217796
6.754111889345296
6.751160564102548
6.750581771544627
6.74571199483354
6.7370976974517855
6.736157636074983
6.725689041286032
6.721195002337835
6.720726601248777
6.718818935651826
6.717014608652168
6.716682429040502
6.712705580251387
6.711794474118511
6.706222206237019
6.704263821127869
6.703498894874781
6.702662090260805
6.6950460854334475
6.692561139259558
6.682455661187289
6.681458398178037
6.679604601149167
6.67723287110255
6.667615113954015
6.663415689490966
6.662263066538712
6.662237352748418
6.653068631171191
6.651249994567738
6.650399650030712
6.644674260404708
6.642504831255893
6.6370581659376775
6.636472259028661
6.635076112903125
6.634951102318171
6.633281147141204
6.632755016683822
6.6318104128333175
6.63035699744666
6.630153890461592
6.625933667642719
6.621634524256689
6.620289426992539
6.615155146733719
6.610243740725432
6.604494844930892
6.604256261869709
6.604060625434129
6.602222414666363
6.600686667287247
6.599275668713052
6.594414912009473
6.593876407164293
6.586762608568236
6.5842753462679475
6.57937149797781
6.577534522450032
6.576682867276476
6.572815395175208
6.568328460359554
6.565244908610304
6.5623608323896345
6.551694027013776
6.551660262784019
6.551381400623099
6.54949711323297
6.546731681142434
6.542919857776786
6.535133726006675
6.532356471489363
6.529089755942714
6.527711039340533
6.527650551317947
6.526929063378244
6.519945123543861
6.519832913311223
6.5171251397274705
6.516862673267236
6.514766569681655
6.513473068734681
6.513074219358233
6.507607820531856
6.5070007874139035
6.506027018489279
6.504990434576314
6.501982682681182
6.4995042426340195
6.4988674977312275
6.49803370135993
6.496846749177498
6.490147970092087
6.4894637006592255
6.488916644006201
6.486898605903669
6.486131562078349
6.48504210931762
6.483914481658241
6.480873022621088
6.48050146058951
6.479157080667834
6.475974327168677
6.474270569224494
6.473952284901683
6.465080143071199
6.464915320879214
6.464869351493942
6.462446480880376
6.460394505317736
6.4600952769334254
6.458137788553387
6.457318333474882
6.455188958478938
6.455002877830109
6.454299914306956
6.452938176100002
6.45287131525717
6.45173349536584
6.451721311060491
6.451521541039576
6.450446321191432
6.448664739365698
6.448504558581318
6.446348965748351
6.442333187036683
6.4406769428199535
6.440488380132529
6.438796693349676
6.437683582383476
6.437195370166972
6.4364275285116435
6.4330690105581
6.429537192949558
6.426866992577681
6.426286466577416
6.422926234191909
6.418011953649865
6.415448636309396
6.415409503033008
6.413990294797413
6.41257797689806
6.410829269120437
6.410224258530683
6.408578105501229
6.406999178941062
6.404860842062169
6.403860821352238
6.402497309447806
6.402331427154648
6.401331350692466
6.401261093595925
6.399905807420291
6.3996741257180165
6.396674774244836
6.395904904462243
6.394234034422867
6.392644194766678
6.390887797483755
6.390717823848586
6.386736512530005
6.386562249546036
6.383495385011226
6.382200758015575
6.381923761012957
6.381800589794114
6.375039198083245
6.369537456236948
6.3682666762803475
6.367058829919124
6.365095994223301
6.357166923251661
6.356115425422807
6.355047487279452
6.354495699519747
6.351191968607944
6.35007450955954
6.346802443488723
6.344028065187589
6.343949708581704
6.338032809374619
6.3375772728447615
6.3329823013375055
6.3326254121356556
6.330659869590459
6.330604968780502
6.3286606127967415
6.3275251485560515
6.327185331861456
6.325403891053648
6.322876294033625
6.3213846777331515
6.320181969697696
6.319786099835461
6.317247272042062
6.316040759030152
6.315543038504513
6.31037540502952
6.308108804268652
6.308068480629974
6.307880900250153
6.305930197610799
6.304681006747533
6.301950000133128
6.298936606666423
6.2988607169174315
6.298308322244285
6.296741776407417
6.292710925661492
6.290242334749319
6.288071341147935
6.284915558490923
6.281000833766847
6.280621345775229
6.276288623921956
6.274803453870199
6.274499489388607
6.274466084634521
6.27173645459607
6.270751530271158
6.269101553906619
6.267897626961913
6.2655290077573556
6.263804693602146
6.263635667263007
6.263409127561823
6.261937288312902
6.2602915880199
6.2601299635035375
6.260013754466273
6.258816049740778
6.258712278388
6.258257394387121
6.258179297781329
6.256119494828988
6.252118010189678
6.2506238844167115
6.247496333858644
6.247402499517605
6.245032506587074
6.244474295378938
6.240462979330392
6.236979752723419
6.236253412177243
6.235927859642787
6.234970446346861
6.233921332352277
6.232049400073818
6.230299092950131
6.230174886651243
6.229333514414217
6.228591844507648
6.225919091755375
6.223748011765758
6.223173849400547
6.211896767652702
6.211335053527397
6.209018497986422
6.208030504933202
6.207850324189967
6.207505475902277
6.205962643767702
6.20304480644686
6.199778921973392
6.199730503773715
6.196862567903258
6.191050107455946
6.188388424888462
6.188177932056985
6.183055092601448