# vtk DataFile Version 2.0
Unstructured grid legacy vtk file with point scalar data
ASCII

DATASET UNSTRUCTURED_GRID
POINTS 4 double 
0.0 0.0 0.0
1.0 0.0 0.0
0.5 0.8660254037844386 0.0
0.5 0.28867513459481287 0.8164965809277259

POINT_DATA 4
SCALARS Diameter double
LOOKUP_TABLE default
0.6
0.6
0.6
0.6

SCALARS Material double
LOOKUP_TABLE default
1.0
1.0
1.0
1.0
