# vtk DataFile Version 2.0
Unstructured grid legacy vtk file with point scalar data
ASCII

DATASET UNSTRUCTURED_GRID
POINTS 1466 double 
7.5641355328114654 70.35936285107587 34.825702639202774
10.911645755335373 10.346498652769315 13.902765735158917
89.42427249979131 17.38526178672183 8.949221581628088
37.36473470326078 12.162897049782288 173.7417549685155
19.64802434018838 67.47023580104246 176.02075117578437
10.02761171549039 60.36052745793428 101.58244610088937
60.33333630291874 14.299456756127801 122.80210391981468
66.7409308964471 22.184230172844835 22.01906974994445
10.853136068380861 68.02814971805809 55.3377502294756
89.73054105430379 38.414322107849145 162.31213775160316
70.06112481732396 9.00407732955298 48.06030348756123
80.57384154117497 77.47992157262213 129.3581632724827
27.954830420649426 8.29705173801908 69.63926912351307
61.034175687890816 74.77321223115494 149.01644234425382
37.90524314520504 85.5959330738636 68.38651996684392
27.362184496363003 37.303400018787805 189.09345354322852
81.95673098939665 65.23838471971628 150.4121873806963
42.8922941615171 83.8641532899877 43.69062548124368
16.4723479036191 48.68029924742948 75.36120978125889
15.820031337188661 19.04162790123134 24.050756768236997
38.63129659805429 15.014153649758208 155.25025010444818
24.325632020843596 63.59686795002003 144.8885448152428
48.63071035950389 80.97080253134285 138.79509904020696
9.85498284945245 25.85599242309193 182.26540426720254
84.28803886002981 83.43732532674164 28.83159171067065
33.52469151263817 84.5210780649323 12.417281994951274
79.74660742851799 49.06540262359579 42.09389571099414
49.884074748577945 31.73217514397109 17.597855340571833
13.243859110402994 27.67151139842499 161.94694793176706
80.4000011962652 13.297492086582418 171.16579011447084
83.2792461856574 43.788572283215146 89.40021322025733
8.750200867136236 55.0200477480521 45.01642948060167
28.198387980079744 73.03411259881916 70.72933363000101
81.71991429823912 71.90864487699235 81.7416610217338
63.494684047947814 66.44160327873796 123.65721250021312
51.718707197340294 64.14288733668761 89.4508654409943
36.3705115941324 31.646585956297148 112.53901404346063
45.03067629033246 44.95325557051555 162.76859636569728
14.891486863108032 83.35769816357352 156.23421529067176
52.146858727673724 45.75969775608469 40.24123544331152
27.31114273299192 85.07965335636509 127.02516357081043
64.93414178601363 91.58463690395935 65.6399005123805
66.06770825092724 80.62542737871448 20.72954245109878
18.207998481053917 31.33888600137785 147.56832889875045
47.32944836541166 49.778334502030354 71.55459036494771
18.339479084089145 75.52975430461525 42.4696742571884
22.519706264281222 74.90675102643058 118.40157534902418
88.50397567590777 89.89642911579439 160.32653385877387
22.120866682218796 24.761728051893023 55.07471166862582
63.64490874569334 70.81122312381349 60.01831337458633
42.53642690442502 10.247802303782878 111.47131111996754
28.940654329681568 67.75397318553925 56.56898172519475
40.121225922113574 26.576244371044954 34.33663779196429
56.85243359154074 35.71663550228685 92.0812269563453
27.45329608035347 91.63018675948737 35.75989487016813
52.13999327298267 75.75268512790647 161.40018411277703
15.825668008491824 66.2822466215706 83.40978360023325
52.28976171851385 44.48129971675243 131.27940043655647
40.46068381334769 84.88269239624069 190.9564783534049
24.86529791005192 52.44224729813002 35.65347315773057
77.03539209798517 30.479386207191027 64.0584292722803
37.45187709685796 36.64708778114344 76.18554554569639
57.0423008901082 53.77545897508154 110.90948312630195
30.168823708890862 39.41021955323164 58.93047025362586
54.05301046491324 65.67019861022196 142.4188169900196
24.539927969577054 63.81951610121425 43.19658086795353
38.69246835493998 63.51008485034559 14.406098967823286
57.32260847953343 29.130688430630258 39.38670439141988
40.68490684645095 51.612295355865925 128.14447178482504
68.04823936976995 13.385730540387605 83.76618706996669
57.80480001840739 26.78508461193705 102.58122858820145
64.72440405328624 34.74987969401406 117.9670353332612
17.92752438177277 55.826875733520666 122.39066504634836
30.65052520951573 72.4468673181628 94.26162567201688
70.640434126057 82.45714980418403 51.4031793664785
44.177018145127334 50.884440536204174 12.693689186600754
45.814783327225435 49.423299202373585 28.24965013303123
60.265598425418645 38.41162919251195 7.950877041560897
80.62331099867299 67.77217511571526 29.449273279500563
33.82975301413854 92.76629957511452 85.79167926944896
71.8589244712534 50.742566651987296 92.79271822957399
71.66145441761644 85.068203398505 143.90666003887512
39.330613828129756 72.81882590621235 141.94296189818624
37.31228636149157 74.84312862366241 119.16659056408837
7.6365636248397255 68.95149769987034 158.50207071576875
64.8184130490271 66.57986821261078 171.13817328632936
70.29512218816578 60.861272647210875 84.67609795296231
84.92375673709967 22.64181863863734 85.87937079340028
59.929055657586865 78.16572762902359 178.04631737343954
34.82998430024991 63.68318586070242 182.77863428380942
73.09375678814848 80.72918576587566 105.41187614241414
87.77847829271411 38.63060742920377 137.91935083333084
37.917557530320174 60.516703222346216 160.93060397118703
77.07099054412234 91.84495435242863 190.8223355249394
7.3211650818366465 30.018636498976324 140.69991660129227
19.180501011866358 13.548989023793407 47.619510967607354
46.95168674246331 9.42886017108582 140.54537703068016
69.97758141932259 78.88735054654815 83.41408254774537
78.9495281125295 15.996632970529218 57.66910105721249
32.90718599469224 71.8443985636732 26.580113282333887
42.55808370292784 91.18880680870615 132.83221303110793
18.153981479632193 52.126808431069335 139.43579224337225
72.57683999484084 45.231836068189196 190.03440979955502
57.374756293790035 52.86564443105783 189.31250059411283
18.67233866460759 40.4901860350938 13.707910243753158
30.585982258586945 9.998610920838583 138.62599116184313
53.71644180115721 88.34177174407678 31.17945865955839
29.23300992687549 38.14145851629519 133.98171927725917
31.49662841117794 30.667967873979475 92.67726981722817
55.813054059196475 20.990257303842604 74.73104799001113
38.09315705341982 38.1847728733491 99.89145451303459
71.69060458130456 67.0998876554308 157.52860663146967
9.871657714972379 18.37249691880286 57.74448099592807
12.27286699860712 11.388422851008324 67.64449616129176
73.42258472079519 49.23672693760837 146.88992294166442
48.70687326900919 82.41524488832421 99.76241147535092
31.81691201508216 40.5162333001534 166.0533826365401
23.80003414106023 90.34235821371712 103.18793485894247
16.86714348566193 81.40366098505741 169.29872771755004
43.01431428795831 26.593916688347527 186.54612741339037
79.8315027701477 70.37258795100806 42.728079885789754
12.62666946490359 14.98610527142733 162.95924234872408
15.580439253909839 77.83788464399443 187.13169265042347
20.290790002132578 18.875669953903945 151.29060812699257
55.79548530683572 21.164646367897326 180.18907629999273
37.74936464587521 14.077917859926055 32.91293651516986
18.974693108709012 11.432644435750843 33.95537237531404
17.503551510008887 61.353006838268875 9.558450920320146
31.235258411286253 26.933125972514105 150.99891885718574
57.95885995129562 66.05041095644802 184.57700185987116
25.01945392866749 35.22845132312683 28.66770205290836
38.10259232797758 21.192443070647407 95.71782396023167
40.111379812765485 31.865187856780587 140.7877635297097
72.0668544699662 34.37492993946879 8.498265955737097
9.43758025175652 25.73750396616608 37.25578092199008
35.53989679700444 78.646359422825 152.81478700809305
22.94186373382453 51.801740592507386 158.74343998120054
16.05317557999286 33.508957074609306 61.30910623568734
34.82490067887982 60.88133961760057 118.51756698729044
89.02825812519227 16.477425786160442 122.33831539380765
64.55663113167932 25.995661552969388 60.994935871718994
69.36694386741104 22.600096051321287 125.25943069862815
15.026495647726872 89.54751697048748 124.46359749099173
59.62018724581988 37.41997815922536 151.79724487870112
64.74695683617175 39.65020069390505 35.424875894071334
72.6230226884699 48.245625922167605 22.50407092563131
49.98519620951342 61.33651589767289 170.07833236649992
76.50071994082468 19.470659413109885 73.98211667723464
60.294832442811035 91.16684800617723 177.56872672267912
69.27456223671828 43.646365218196024 82.69944407419857
19.115444663749372 37.36857275985045 80.77637624323556
8.303970899569594 41.33355104568372 153.74696848260865
78.94881808473923 21.801277672703645 41.460129019947765
81.38148482817654 69.49979854856028 7.95895473246835
51.63462913956409 41.456354374438874 114.23586078473764
26.57460060026389 28.62621856303459 13.176487128719238
83.7664240115655 14.736403328795756 140.4985578746585
73.61199676278346 80.00621255891105 175.85612531838143
39.49152265697108 24.407814183211595 84.05485008884708
51.21808794946293 89.44993137954764 165.19029349168622
33.40311143702452 23.217409353399606 72.60620410512861
91.33335707662901 87.65327785413189 142.0377561148663
53.53343944425774 8.724669862245648 32.70020082966002
23.34916486087917 9.677613847075007 114.60895438829466
31.665359701275896 89.8595310630618 162.67044770913594
75.46954172767532 62.43168951613401 122.01230426106079
59.61793696775144 81.49875490089993 110.67798470495978
51.52758714810168 39.62537294719429 184.0445900635276
37.80669850208183 84.62707622161261 111.20947221257855
82.43220863917517 42.60934576065558 77.05566277124281
85.97718611192865 53.55578111510731 63.36687250459592
53.34399430135963 71.91293674788912 115.05403608058428
54.75009307305015 85.78417814701119 189.93991417122209
40.53945924693005 60.66139631126546 148.636490180036
10.135320547947055 88.48844849657769 189.70393265756454
80.62064126807826 60.36929645715 15.790626564483922
[...]
POINT_DATA 1466
SCALARS Diameter double
LOOKUP_TABLE default
11.978498226016752
11.976756643080678
11.96951294656552
11.957795561713642
11.944464863232191
11.941981732819995
11.93418340539146
11.929222122006955
11.9290269894016
11.919707629695154
11.909283152464072
11.900966782186455
11.899242047761238
11.898111765954589
11.892011163554127
11.881279163291515
11.86501253839541
11.852453051083074
11.847780534143709
11.840508971500295
11.836522248725597
11.83078957634297
11.815070289658955
11.811389660204721
11.802510346007526
11.795082281228677
11.788419247607205
11.785211235927514
11.780188513184452
11.741956309869593
11.739470428045028
11.723038573260144
11.716923142258612
11.630986116527415
11.621084333759788
11.60042799216624
11.59565233004388
11.590835946758432
11.557414284134586
11.54418866456632
11.533771591178263
11.51094939212854
11.509590014296728
11.485632893608669
11.472530457401323
11.462080650693547
11.456506564998328
11.440696036081182
11.436947285544083
11.417185330007925
11.407302673649307
11.396809304855877
11.396081179231297
11.393162173629499
11.380788193739841
11.3625349819342
11.35761886322151
11.324023844252297
11.32396324581295
11.304075492837912
11.300638831912451
11.272529707330788
11.26307911532243
11.228093913858581
11.224590511980564
11.20489230822793
11.188334351639536
11.180307864319108
11.166619135606743
11.16387956360449
11.138920395452129
11.103957010220537
11.103938052445093
11.094871908157657
11.063764960472522
11.058872195187075
11.02917532361828
10.998400375979877
10.9932450310366
10.991279427208555
10.978957769251819
10.958470779454967
10.926770918140527
10.897231191583327
10.884257697933167
10.876236510604194
10.872743480564338
10.870771593835409
10.859072335280196
10.827072320344794
10.825115667764466
10.790558682748772
10.78745806475245
10.778776656264883
10.762267223236574
10.756584895152724
10.739196514594846
10.735292251908165
10.715691667231722
10.712684986924028
10.70927102225312
10.699966554266496
10.688382213276773
10.67414744399953
10.67093745002511
10.67060364630763
10.662062647212622
10.638741758985935
10.631562766807017
10.625385465688256
10.6165280571672
10.614479692376289
10.61013894358806
10.59724191872157
10.593790421074212
10.580742169984887
10.579364997115526
10.574313607391334
10.569591470994462
10.546222106970948
10.541627561764507
10.521371966533065
10.501754472054158
10.45835615055653
10.451831803297207
10.445386793652494
10.443351308374387
10.440752111949386
10.43596756070608
10.430006995837728
10.428657042242534
10.414679594462623
10.402232932704493
10.369715137455884
10.36925473768856
10.360769970425554
10.35681494247088
10.352844623363522
10.351829136118962
10.349530333752762
10.33542967574904
10.319492527116235
10.316365822554129
10.315579377418302
10.31204756907614
10.307853735153577
10.302823260404324
10.299804687612594
10.295497031101206
10.294442031515336
10.283730334210118
10.269454017508627
10.264826943422168
10.263829434705778
10.257644134379134
10.251186282229224
10.25109808611366
10.238220916357275
10.231933245768445
10.214659333968756
10.213302972754015
10.212567968720421
10.211796942761342
10.208407708757383
10.197934730925727
10.179726975122541
10.17814558972881
10.172912736331014
10.152070512124627
10.14238530272245
10.140335361594257
10.1306203596237
10.12050909501781
10.119502442521721
10.102345398228533
10.10083669579367
10.097933041194867
10.096297838511944
10.095759485289957
10.089470406897135
10.08654825806343
10.085263158388353
10.079434497652526
10.078000926406375
10.07226828428249
10.062694104317856
10.05903544797739
10.057768429281229
10.048338000546963
10.047717581240507
10.031857176390675
10.030136288744277
10.02849529180652
10.024021355789731
10.02126980236085
10.012216570446812
10.00890604272817
9.962885587113327
9.947264988558272
9.944991557384391
9.939148481487026
9.934709864177657
9.91542533876509
9.907935477878532
9.90552394532036
9.903398647963623
9.88927635280073
9.868021842655239
9.855519565707336
9.855369486584795
9.847581466125026
9.81758542040339
9.813461779383388
9.811161930558722
9.804085752242552
9.80287204817212
9.797250933225966
9.796003245474324
9.793248673571323
9.789521690565735
9.784772335507805
9.764742803352119
9.755599662676968
9.75475632650991
9.752015561757744
9.741064278341804
9.74079730794453
9.738530547314777
9.736318514874633
9.733431775900993
9.732485457114704
9.723131057615449
9.716657119048921
9.716345249832296
9.712505299492554
9.708711776310604
9.696517386213628
9.694907931432885
9.693562129823391
9.68555143622653
9.679926670871692
9.677448676573647
9.67702684605365
9.672101466793693
9.664017208785069
9.629039684113636
9.626455017791287
9.6219290047971
9.621040567172287
9.616369552808624
9.609216533429723
9.603681092827301
9.603243576645909
9.597643708228064
9.584546639082953
9.577573195258335
9.56994005809315
9.56334320010647
9.555571174265953
9.55333149120183
9.551270759512837
9.550767574098291
9.549212223234017
9.53711838286564
9.525050431587967
9.509349483843
9.506032599535814
9.494113160654253
9.492624852165086
9.4805378390691
9.472633227825927
9.450022248354584
9.432216109854327
9.430264365824101
9.42083219366248
9.413318745720648
9.412221937688935
9.403702784687775
9.394856831447422
9.393221967848394
9.389920820544827
9.389382619069417
9.38153995343755
9.365492673285853
9.358522098342657
9.358034497127488
9.34827810501617
9.339706339805364
9.338044048417188
9.336199987297459
9.324786471343096
9.308844968692824
9.305935927525754
9.301602509374858
9.292166183563797
9.287244185222816
9.272642046599783
9.26107045419174
9.257068973455121
9.256163915473712
9.245918356781695
9.234330881098963
9.189633677526675
9.174138038559533
9.172476723015764
9.1602151127354
9.148853941643788
9.141241975612612
9.139819889759762
9.13319831769977
9.12462867498392
9.124375109381527
9.119584983863831
9.119273348108234
9.114343103859202
9.106939344403616
9.099735488871588
9.098353497605972
9.091798404956323
9.087590274393182
9.07127161623338
9.058705120938468
9.054564687548341
9.027489084887222
9.020693040321426
9.018532313613251
9.016651368162833
9.014209238929801
9.0000120622603
8.99169350700488
8.987291998217902
8.968874171271676
8.96613520415318
8.956381324693
8.940530113320875
8.930093512073157
8.92927115476469
8.92816077575312
8.91652953535483
8.911945704007447
8.908794678771798
8.900046962312633
8.894667430989204
8.893903525355926
8.892644024304293
8.885615253345971
8.881385187679705
8.88127034617579
8.877183137366643
8.876400100170788
8.869873563063237
8.85812353220346
8.856481817188886
8.85414430431376
8.849023079532204
8.844437275317569
8.84271972778475
8.840517670576208
8.836773375486487
8.836384088561763
8.833729109686978
8.833229616917823
8.832874896000728
8.830384020029213
8.830013409282614
8.824629731813555
8.821005600996235
8.817955372576211
8.816178265007654
8.807776483893578
8.806732369061288
8.804557037274837
8.800752869249191
8.797660514971483
8.795281542106398
8.792903915884079
8.786642893043254
8.772243630147297
8.760650430117472
8.75528145042357
8.751712471320948
8.750941662651835
8.748063184266135
8.743030188933593
8.74150288631013
8.74087016679556
8.719647535958817
8.717464065015132
8.712465513634996
8.711948327535033
8.710941974387083
8.708567596390289
8.703922756778889
8.700298578153054
8.698039384185117
8.68916069960056
8.673264921541037
8.666968868129889
8.652669991580307
8.629570811830042
8.622002362854834
8.616737993978216
8.60956173016758
8.599967469211489
8.597011576937204
8.593857547620374
8.580993954315769
8.57885449631843
8.578759090843295
8.57385952130158
8.566306589244554
8.562480078558503
8.557574603279914
8.556005911097838
8.550436209420113
8.547824741472185
8.546416039815885
8.543551206423484
8.54144093148344
8.53491255962239
8.533454394436573
8.533236609974974
8.532867334559011
8.528161532743407
8.523869497049718
8.519153583581357
8.510350555415933
8.50984237556265
8.504471559084605
8.499915175232232
8.49376586710752
8.492914756892226
8.492861590816396
8.488322767913875
8.48604810953913
8.47409553235499
8.462216549674299
8.458775989593757
8.451211085425477
8.433625772437463
8.429547941010313
8.429352421135157
8.428150089605044
8.4203547515731
8.419110230662888
8.418338808683547
8.415097688929306
8.40980242030875
8.408850906699445
8.402256894485172
8.401627923482785
8.400462546049798
8.399723429322764
8.380061853814121
8.380061339760163
8.37174591081763
8.371287293908825
8.36690170744844
8.366379535641489
8.365422573730761
8.359663418476792
8.346162766637882
8.342585175182128
8.336987338736105
8.336581790017723
8.33283244656345
8.332141710989575
8.330278865072065
8.32981855992869
8.316894514741252
8.309896577454053
8.309202838386579
8.309083801786802
8.308768244315907
8.294434006237811
8.292149585816153
8.291448136388402
8.291037873684893
8.287531575017587
8.284107993871341
8.282262228420084
8.275699444669193
8.261533760456018
8.257588525957503
8.25708456174562
8.252855818024209
8.250998563894266
8.247945214911415
8.244919253243452
8.231774693562823
8.222859022895445
8.212446060635106
8.209660830634569
8.208366569917375
8.202833295009658
8.198515248689391
8.189781955802264
8.187728895483884
8.180757032606591
8.179626165163326
8.171498227093114
8.166439285324437
8.166146547970701
8.164776760378212
8.157628254944118
8.155827782910404
8.155392684881376
8.153138274348809
8.1496018215105
8.132629066315552
8.132596303439248
8.132089211836336
8.124930752403525
8.111500608414499
8.110562983844538
8.086029970209342
8.084456330018703
8.0843295952168
8.082429936483758
8.077051439543233
8.07620019480325
8.075309291155277
8.072427783599457
8.071595271677275
8.064686824069204
8.06319198050538
8.057944509479348
8.056578128152092
8.05267380006842
8.052394175198376
8.051248912666564
8.04842887370784
8.048235372998768
8.047990016327642
8.03558620781733
8.030293685166228
8.029959517176767
8.02965125973866
8.02657829504142
8.023148368613581
8.022986249884594
8.011073544751413
8.007679272062656
8.006433653267207
8.00377046852288
8.002109841903371
8.001480771066722
7.99872443179124
7.996219232211718
7.992396638873576
7.99149839924805
7.991163255921554
7.991024151975749
7.984796990009837
7.984178042497433
7.982151544437471
7.977853159097774
7.976371276729363
7.974220089316618
7.972182386850536
7.968754842447495
7.9665517139406585
7.9575867994299845
7.9565828552098115
7.953638377434427
7.952827358929367
7.949481629630079
7.947430202900397
7.946675568461794
7.944628315873608
7.944060853331661
7.943532284797813
7.939086787038714
7.937323393832085
7.93700819449433
7.9351510687158795
7.9328050288677385
7.926076765960218
7.923123957692461
7.917659816963708
7.91423375108409
7.912002909577975
7.904247927882192
7.9037015190079405
7.901562111776224
7.900574383991609
7.899550860333923
7.895896889913908
7.893914639727335
7.8923618930487995
7.8825952625784
7.882512733057682
7.880627307072413
7.879335973512733
7.878637915660457
7.878513168849546
7.868505123218897
7.864351395798251
7.862627784331197
7.858012610132597
7.856414786546296
7.853229547776138
7.845173036543148
7.842951105145169
7.842788001068268
7.8417991331891095
7.838232883119051
7.837212838422939
7.836081378823279
7.83522888937781
7.833087490725278
7.831545958181476
7.829169938277083
7.8289870529804215
7.819558709777353
7.816894248102965
7.813120314735016
7.804021753968083
7.7996767362458215
7.7991227895089015
7.798935264670154
7.787924448472382
7.782575960768371
7.781011199933792
7.772974021797047
7.770774656048877
7.7702518758707235
7.770085368292259
7.769922159424998
7.769834662712973
7.768921093803595
7.764408082244078
7.762968867717273
7.758949143183717
7.7573643579005624
7.75302763803637
7.752868875208721
7.747833211180861
7.744997199515897
7.7413282336435145
7.739072229256599
7.73791616609535
7.732640445992606
7.728204589240923
7.723664393705224
7.707670038434426
7.704129867816947
7.700477131356101
7.698606025297607
7.695261338710186
7.695156942575595
7.694852546024823
7.690995803548474
7.68939873937973
7.687146339188785
7.684761447597962
7.684321802417875
7.682986758922709
7.68261270531211
7.680890287006755
7.679397610572023
7.677075214914255
7.676985485216111
7.674998111666258
7.674318292424852
7.671992443273583
7.667263606534441
7.664687190085988
7.662129894641579
7.658389976479281
7.656021571046473
7.6528268976207245
7.652566432152256
7.649135968295941
7.645267659484972
7.644489718717484
7.6427251352962
7.640982452566382
7.637909647121392
7.632417535419059
7.630451907043353
7.630431059994102
7.629266428056335
7.627811519204684
7.623150943581832
7.621398669979138
7.615706758418114
7.614970244608068
7.61437248784962
7.608110768774093
7.600385871047186
7.597267276086973
7.596972384263866
7.595534202435234
7.593827854547643
7.593066819398624
7.591385580136243
7.589459497575194
7.58791140154638
7.586983990428324
7.58202922484066
7.57334128256014
7.572514372926021
7.571467395800829
7.57042685747353
7.570064420586319
7.569251948099232
7.566565907278903
7.561412364171957
7.5550160396796
7.551688779669513
7.548115779608718
7.547167670904939
7.543418693524709
7.542598882685748
7.533734846181553
7.5296372606250594
7.525413682711112
7.523016981108203
7.521204566378703
7.5180192005056465
7.517826805297365
7.517716498051292
7.517541865198529
7.50665062054433
7.490694029330086
7.488384612696825
7.485687896843947
7.485048113697987
7.484909564580889
7.481399691302757
7.4777163851437205
7.477481321009802
7.475437199339378
7.473165927740586
7.465728671496168
7.463371461687251
7.454082017467615
7.45105909316619
7.450940092386603
7.450456633257035
7.446437182499372
7.443240711396967
7.436979129060485
7.431522919304341
7.428735352711016
7.425263716420442
7.425085667471263
7.423458045740341
7.422212608272074
7.4214983643900485
7.416302419301512
7.41300445708257
7.412484811267078
7.410275480204044
7.4098732610741465
7.40957459078625
7.405920105905388
7.405835715503821
7.404847622534124
7.398267538890994
7.398223066150143
7.395240789518961
7.393110504260054
7.388620391070662
7.385793682151066
7.383848783507874
7.381268558165664
7.364687261972325
7.359992477395302
7.359373223787507
7.355052440422353
7.354986943959785
7.351879936562847
7.347428495334566
7.342904171300276
7.3425869535482775
7.339475789438369
7.3362339059317065
7.333342714205245
7.33328062794046
7.332366506112063
7.331641200909706
7.3219040504383806
7.321336385739576
7.312126834675927
7.31089510075057
7.310166492839456
7.3060489295506255
7.303168605509681
7.301363479217423
7.301333325930425
7.300358447417585
7.300102216768946
7.297569980059565
7.2946475410581195
7.289737166838553
7.288118420088859
7.281112422411427
7.268286744351062
7.2631689306831095
7.254783993975584
7.253561690174411
7.250966410366645
7.238570708632617
7.236081412669678
7.232591378655748
7.224391989655189
7.223791948872896
7.222880607491021
7.222799551343867
7.221940978502115
7.218645767180689
7.2094267303374595
7.209359417950328
7.2091558862819145
7.208356983852603
7.20803722438065
7.2049888831831135
7.201926754377498
7.197320283302087
7.193602483356402
7.184656444309971
7.180022761511806
7.177760306338351
7.177665358907125
7.177418126701472
7.175798460757569
7.1739680091508875
7.171319395376941
7.171054904547784
7.170701031027129
7.168598166394071
7.167391784339638
7.166505555196775
7.166175719888944
7.162093988001706
7.161394086541062
7.1608016026046695
7.160482911384905
7.159567028796603
7.158947924709762
7.155884421635394
7.155502960460144
7.153759287534489
7.153401125752557
7.1508252329387805
7.146331655344884
7.143986849301842
7.142623577726212
7.140386120047109
7.138752858185409
7.136837015250826
7.1306105662103665
7.126426892721158
7.124927259276037
7.123757750139292
7.123168297453237
7.121339344684019
7.119623433009066
7.116359801869379
7.111348916123494
7.10739907700011
7.103773464336205
7.102574150995745
7.100127567335217
7.096488344519608
7.096085477509512
7.08970996347001
7.08493804634046
7.079145456770929
7.077313979331646
7.076575152335906
7.075931838031332
7.071212475044415
7.069493225841693
7.065374897447917
7.063538471698522
7.060108104689448
7.058033811392011
7.057487394879191
7.057331895788325
7.0558409130704565
7.055448261277875
7.054728431292746
7.0541378215773705
7.053133159040387
7.05080263211371
7.050180332371714
7.048697032730718
7.047344409579736
7.044130127459974
7.042807210643922
7.041790204401627
7.035642227550376
7.033038628217717
7.032977112371192
7.03105744609487
7.02861559006477
7.027171015323216
7.024784447777851
7.022943779008053
7.019688701486343
7.015380248009754
7.0104548188777445
7.010243569131578
7.007108223946002
7.006490735671077
7.002708360234335
7.002695089825368
6.994277916097673
6.992835502680029
6.988526332555226
6.988111435866194
6.986006030316984
6.98451017449602
6.9755313368448855
6.9735734463084
6.972397030976413
6.97193343982531
6.97185432271692
6.971553384240938
6.9712675354248415
6.9661256771452855
6.964716843432674
6.957919119785776
6.954413298536199
6.953676082929098
6.951450751748881
6.950194313329951
6.949840303358936
6.936361341071766
6.934817109311313
6.931452564023584
6.93090027622331
6.9287745955469795
6.919667825879413
6.919433307400767
6.908400676742924
6.906708196376135
6.904532280034974
6.902350700878154
6.899167007809869
6.8939392032000555
6.893430011466059
6.892357759896321
6.891810971075999
6.890820182805649
6.888075211667836
6.885208687391925
6.8803031562047465
6.878458455463409
6.876496727281189
6.876309236642367
6.876284238909287
6.875160899574881
6.869080929328017
6.868100458116196
6.862535290312735
6.856998307336021
6.856607251420341
6.851060222718762
6.850399242283475
6.8480637171507555
6.847919867911443
6.845590494623826
6.8443501566050715
6.843463760753426
6.842929288680906
6.840403969544883
6.838882910342749
6.838487590127787
6.83646076048845
6.836334695958811
6.835588713132136
6.833213511720482
6.829971475231287
6.827305507304564
6.81650420062948
6.8164217349593255
6.815254901960664
6.812159486366143
6.811292528859761
6.807722780851517
6.806351835416896
6.805536720190558
6.805523829861258
6.801394245166296
6.800265949315406
6.800028234105261
6.7977326159398785
6.795962452452102
6.795243376257201
6.7928515105023735
6.79276159899578
6.791328334742614
6.789479365690081
6.788371242826177
6.787039077273645
6.783850258121891
6.7800342823180415
6.77917040295532
6.774411372027295
6.773852329215556
6.773728036160684
6.773628859397926
6.772474010556042
6.7714523540719505
6.767306469491664
6.766920698557736
6.759032586628684
6.755589154815999
6.750454124132714
6.7477420720849235
6.746945937451532
6.746699693104094
6.741805798193413
6.740894823782723
6.73443019637774
6.732662295107636
6.7295949022657675
6.72324368482419
6.723243484250539
6.718303920317608
6.712921848173448
6.712330432124027
6.700380776621829
6.697609261868385
6.680046360372341
6.678684210045537
6.676795170226228
6.674700072741205
6.67207353938449
6.672061525608875
6.6717597032987275
6.669736517917865
6.669067892793142
6.668257349038431
6.667452852009902
6.657266924505747
6.654603420192471
6.653177081889877
6.652568901934822
6.64651738890714
6.645077365078969