# vtk DataFile Version 2.0
Unstructured grid legacy vtk file with point scalar data
ASCII

DATASET UNSTRUCTURED_GRID
POINTS 1059 double 
-18.30436028617126 -30.42089442934982 79.18005556937585
-34.14277740492807 -12.279666580903351 96.24891096513069
-11.999417055134932 -19.17602383571829 145.2447945324299
7.839940559158065 -1.5148135410946306 146.64541080138136
-8.294958609548225 -37.976065962705746 69.33463149838208
31.966249433330333 6.018811019841949 141.18496634548694
2.852044871014626 -2.63206713774066 172.1812612333161
-36.827158818831066 -13.526978730474722 186.8057277487124
-5.416616281277863 28.834699697093043 18.605342681534754
-10.46702811300452 16.154183701262216 186.553355942983
19.188210538483712 -22.341538246357928 37.76030794747251
-16.38831076790796 -26.450881579560047 174.10390238714035
0.9917664306399159 5.36926712821265 135.2966871917328
-4.377315701608818 22.236556614959028 49.82449711857198
-4.654557543265049 -30.71800867642616 36.93818591648142
20.554698463466934 -19.678725456490557 179.04535518128094
-29.20828828119203 -12.957494171882397 44.9566728454106
-0.35079353729521134 -21.258053612608364 186.0303548384696
-31.99900138313074 24.138592850743525 177.6869253731752
-14.507729851381969 11.068178222264278 169.81950422783703
-26.62596542581027 -26.198057043695517 20.23405437913209
6.566203247014862 15.73303592912636 72.19087781316516
-1.7597780842080901 41.69586650108435 62.58128961067985
12.037285746291879 -13.38027712745574 71.03536777282284
-14.499665202028257 33.821761655416935 61.02689334157989
-14.70814576802539 -8.444346601280637 94.90960811885176
-31.7025872867655 10.404819663750061 36.82851746548562
-9.521719398450866 6.593515160335375 41.615949738402016
-3.373039915817447 -31.967315162553255 118.9521652575931
-12.134968540607654 32.00988993937007 78.54416234805016
2.7603115722628253 9.980845996312285 104.99815248519879
12.833399200041072 13.981183388292653 159.10717136065261
-2.588503449275855 -33.74954735130069 8.711644030021663
4.5965984129770465 26.869531806255907 9.073875930377294
-26.549929862212156 -19.505783826538835 165.3190567651829
35.97467301353245 0.009071870256966541 110.29431030361744
2.9219286781156337 -4.150588015234483 75.56557807443188
-4.1942023785416165 -3.410225680926276 156.64398219551583
-10.204977878262849 0.5449456060382936 58.677095686347876
19.9641379374478 -33.47244824586026 30.20042225347285
17.25711361164633 -27.131630646993013 142.74705127003708
-22.141823547902025 -18.92496068745033 32.69219158103739
-25.593466532143225 -8.461141369166166 10.20213155664217
14.38703343901766 -3.0805462966557418 158.362894654424
-1.2392008135357795 -35.49800675469608 190.1770987047168
17.018840614093598 -0.7510629348586342 185.66088155926317
-2.42916602678085 -10.016216954504763 134.85020338881526
-16.943747009551725 36.67386087253127 175.3218669532871
10.262058709419023 24.506516324376538 127.29472905584939
11.819929356342426 -12.028070578918513 126.78523358817735
-36.058729337793444 -15.184300262730309 132.27880059695158
13.871833012300836 7.5755188077223625 80.07127317882988
-0.37341813811976454 26.574947593142465 173.71514619836915
21.522570538965383 34.56707071881603 14.480059051644306
7.826331896737504 27.213278624739363 142.79732652595698
4.037943704897886 29.974270544543224 43.636388400182504
31.13592402123685 -7.721058739567871 72.98575259670422
25.532830210354106 -11.853981593540063 133.9043570699105
33.31020121113152 -13.93752344061029 44.720141163026476
-8.801343655069463 -11.572812963358837 53.83934200744848
19.973749752560643 1.315158854750388 68.38062857125108
-28.71355107081266 7.760342874486721 97.43663969110422
-23.30880819901708 15.698767581027065 67.42250524239117
-8.903506674870297 2.5013603624054657 184.71547709260128
9.786662915478395 -33.2396258517247 111.45971212156542
-1.4163835179941469 19.63047433208721 147.64434764836795
16.522950871818615 -26.758299753084902 190.23878288422654
-25.910677730129386 11.278380742375948 85.39760843085519
-37.23975474216367 14.781120806736627 80.92566742879151
1.565587688611438 -41.74951195068434 96.5893187984961
5.964124388273648 -37.836973841561566 49.97960934060742
-27.63454576407778 27.734100561502135 84.84983554852143
20.049373683121953 -35.03393411888799 77.76382794421593
-15.389715734403605 34.16653087759586 94.99397077122353
21.52816900576261 35.9178490356895 103.3323784094761
-26.918565389148245 -2.921142166993943 138.42669659901418
-37.72868867367511 -4.368448829793383 36.179365468419036
-13.661843988353631 -5.336412385593743 143.30825448839747
28.558237166339502 20.57564120269373 76.48380058069921
-26.79462109904134 -6.812178569295945 107.4817092930088
7.795189011820565 24.129859447565835 60.28090065765541
26.582534172320184 27.002660301850852 24.925486250253208
25.401722767184076 11.815330057010822 130.43785930230737
-24.53600873698613 24.672583224875012 125.90980056140263
13.635914518611612 -22.333574015087166 90.5758557787576
-41.79197110156264 6.545402620752778 176.60015792409092
-25.575990153801893 15.960862878218462 152.52779244835907
-21.525616249871838 1.090151238903796 70.11760858074084
28.747973489961222 7.982355733015811 171.62928399461887
-35.59400556606829 -10.360016337437138 169.78647629210153
-5.269192849506942 42.19609257885112 45.33175713708574
-18.33674589834992 -5.87760996593415 37.770441799738244
-26.626000324171002 -8.228604706749294 25.474834141398475
-2.215468948322895 -8.036032245196303 7.435568260063453
34.140215413713285 0.13102019852752989 60.10605248331025
36.63518958653952 -9.379040908553018 95.55480918701649
-12.744987630991318 -22.479466041580647 127.80406299933185
30.156440409665493 9.864266213712728 100.28985198499572
16.8927724106656 11.579824947459842 181.27168258250666
12.557956164765427 -9.390940229835442 38.66500744475276
-11.9894088311462 -15.980030005284684 158.72770245911389
23.577083432125534 -21.1295564645041 108.11675017431885
-11.996504872171895 11.201746340349267 71.49421401110175
-31.30125228210836 -10.674088122563123 76.70539190792189
29.51259318890277 11.49530168542828 43.045928475646285
-24.832823201524576 -29.58375599644072 120.34253038849711
18.454968385593137 -34.505456485449066 90.78060497301038
-18.059320334454235 -38.11195870902107 56.433828993434275
-19.492489641120173 14.540480806918454 37.19770306180422
33.102247576370544 17.14656879994174 161.3059082831734
12.056105888910007 10.061615267980047 8.513410764988956
28.258150640957844 -25.497399522839615 23.595573511365394
22.233125691510818 -3.181007862015999 7.6202103879929135
-12.10318171159467 -25.082036696254757 69.85175484741141
35.495112430739 -20.61396333629584 98.40835710698285
-4.325302200465827 -16.18738864721605 111.08018454449383
13.80778997326414 -26.434332583025757 49.77367463101206
19.22899192063796 34.77113625349301 80.34702406921795
-15.487364307148926 11.273740154060896 55.8478740568957
27.42663544849721 29.005466689256586 152.7668072754477
38.28394034122128 2.8456837562059256 164.46679219765568
-25.4807459173086 33.0266481385857 166.8129231572897
-3.3520808721578055 -20.324275071105237 47.73637322295326
-38.64085118118272 0.10615632741289094 10.71832456340586
14.77346702222874 14.105194447485658 50.928749790354374
17.66252057340008 -15.193594221654077 156.89383479323624
-3.744833246382904 33.13829256834173 107.46120190738584
26.869213187302446 -26.124641202730032 89.88688411122195
26.97211621525011 -2.4769536686694726 43.31228645465965
3.309898059595997 -20.56368896739529 159.79359819323784
-22.231095378021895 30.11963430903172 13.679434155926096
21.40467523275764 22.03362182980799 174.75116664522838
9.921859428813491 16.168506926525634 93.78902803891644
-29.628122045976603 17.503002027581783 50.65869277791636
8.85782405253526 -32.04809275376089 69.43287454023294
-33.19737651055775 -22.322280138101377 144.29293806158773
-6.565034035414879 -35.68842317171843 24.541096595153352
0.7066479133316816 35.86914664229296 190.46878885791568
2.389028207350904 -4.835777615033536 191.12561889324363
-40.804056416894795 -2.541457210566915 52.82487694793345
34.84419824867487 -20.008982273500774 189.46831830794912
-17.50747439287901 -7.531832032323022 173.54458479147743
-12.625685319329605 30.090855716201368 30.58404111396119
-9.663956368966057 -13.279803737051523 15.857896905047422
8.754413360451638 -21.048837120847054 111.09562260573072
4.203819422297767 16.366125633509192 187.8031449808539
-6.592423028047984 26.47597494669803 132.7881975176284
6.406643956047317 -20.813636107326158 145.24193808461558
1.012009002506984 28.114946312519262 72.18934582857372
30.968180600760085 -28.58928504961076 139.37478788855572
-3.09630113839661 23.856593976561978 89.47689816153466
33.82469149704063 3.7891941310792525 79.83361837521755
32.4030539281334 -6.296245046401374 157.85062176990883
-14.025305301388519 39.72437617845029 136.88215198336314
1.0837809064127042 14.01583680929169 8.421781017547046
-13.446852030035425 -36.25479682223505 130.54633313563122
-31.570966540548543 9.51807214189662 140.60866972536076
14.979016321383908 5.540806074790819 32.40291305540663
1.246763695791156 4.7922816341408225 118.28217444841647
-21.204197158636237 -26.86852861034492 47.15456818076689
-1.99748893776994 -25.342492534552356 170.38532143255037
0.9292518021329244 -22.573668517536262 29.226604132019197
-11.267965854791209 34.9287659885399 189.5900487542064
-18.304331622120618 -14.95848294999746 75.27172816064538
19.51121415799229 -21.829645429529233 10.02350637845879
3.1850180290906493 -8.466703433649048 90.55872782105789
-27.250694574544674 -30.419773402346397 160.92273591669468
-1.703848068894768 -5.1373861705268205 32.502267323970955
-3.3160615734410435 15.072072833441542 22.2533755118031
25.513707124012967 -23.672989105331126 74.33188787068747
19.326676381512016 25.544893494679613 37.36912026671177
35.277443338352946 21.112267587038854 93.27960363317811
-35.8109091180711 15.816702656597483 166.35839364795004
3.3263243272374403 -40.429111773307284 24.917741329669017
[...]
POINT_DATA 1059
SCALARS Diameter double
LOOKUP_TABLE default
11.992197551988607
11.98502161309031
11.93450555665899
11.929563214724013
11.909595356572366
11.887743480362102
11.835623071521955
11.834283381661258
11.819948375876107
11.809662907211157
11.798433101764884
11.791681728456524
11.790044634895402
11.763038777398194
11.735685996403074
11.708665490171569
11.700731177279392
11.64546471025465
11.636576459674796
11.6207081803558
11.600585421134895
11.589982035600666
11.552965721007801
11.550366572242275
11.54661526324858
11.53681583714919
11.524613696445616
11.491739450168856
11.490451221155025
11.485761463958653
11.460250587490426
11.447647458477086
11.40792529762281
11.396725294922344
11.38353057785449
11.374636256959349
11.334538428558872
11.294358416472987
11.258174835135101
11.255089246507358
11.250573647840714
11.245143897071795
11.244448156448692
11.223340213693739
11.170401954873746
11.165494015667473
11.118717885225465
11.118014076543716
11.104801140796951
11.085169080517524
11.082535258925086
11.061187906198745
11.048314534137441
11.021091353538992
11.011352455520726
11.010082857391405
11.00910098755809
10.987224916338025
10.970229363200488
10.968802953340129
10.966227976816711
10.95033174842649
10.932251199636402
10.931591813307781
10.926400463212286
10.925868496300916
10.90965891891253
10.884678093865913
10.839677640776218
10.838369371561082
10.836602831826553
10.816347141803252
10.79580085899523
10.788408959805853
10.786882782738845
10.73697334495112
10.709685770604723
10.707329230794887
10.706052841007487
10.698454282748449
10.698303329439653
10.697003493467884
10.632558291770724
10.627440004346518
10.60174524094792
10.599613812007311
10.581579595218049
10.578919480195614
10.565715791924706
10.508960071341416
10.502539496270632
10.499920186647927
10.493919601494552
10.48412786890949
10.459442218893678
10.455433914451858
10.446903341990142
10.434240069141904
10.421522492856182
10.365541365993568
10.36444987748676
10.36078774539085
10.354038555361234
10.348260124971377
10.32672800932869
10.277931328671645
10.24926832296484
10.246949396829223
10.201553593116174
10.198745515359539
10.198374531756015
10.193088064511487
10.187525750687891
10.171654731458611
10.16024525747536
10.152609865505168
10.14430338969443
10.129994566707154
10.123857358157935
10.123737663216511
10.12188116895273
10.117516476128936
10.087573621768751
10.082134419809554
10.071459109345945
10.069928120799217
10.067967628643054
10.066478978173581
10.058016363054175
10.034631830934531
10.017522349235543
10.003008307900302
9.956000610405038
9.95390588841681
9.94901884922558
9.925271999147027
9.920642975170866
9.918799436572865
9.910555115508489
9.897678892029965
9.883691132424516
9.879007817650086
9.878552554768387
9.86970625153406
9.869197897342417
9.86871089403571
9.864877429168104
9.856473922659392
9.836254160093507
9.824781231904513
9.822829803616116
9.816553973857527
9.815168376158415
9.80222075102245
9.768138502056956
9.76676895447119
9.733461322702432
9.722081371912903
9.695571994313939
9.686626460688132
9.6705875110327
9.661219648199324
9.6605905066085
9.655102314637064
9.650071451572918
9.638725623550366
9.63679287099029
9.619096523149137
9.605921870666595
9.60003388464241
9.581136188149323
9.577016960497991
9.566770679125804
9.56524699384666
9.519052537883795
9.513781996567074
9.490145648215123
9.4868490481401
9.483700750433146
9.478803771628549
9.476361548853937
9.475432584457135
9.473817582044614
9.467057228945377
9.461900675225168
9.446640349563925
9.437981972301884
9.428216868973
9.41190222279339
9.397087489646818
9.39594314725344
9.388093130314186
9.374754179538183
9.37469332672476
9.368877895558748
9.367663700353932
9.335885770146616
9.330431858130474
9.327282042592042
9.323277243993443
9.31847406030421
9.315403866708252
9.31354364205895
9.309738694372879
9.309204534333354
9.278929936703477
9.270672941396125
9.25941527044011
9.249638469588636
9.244683730299787
9.242621314059802
9.233685126627607
9.230532547199477
9.227558556983146
9.218075837305761
9.214949393536347
9.20837301665348
9.197571164678234
9.196569169507118
9.18302915927793
9.167100852423822
9.135746615219443
9.11351501463525
9.10397574893324
9.103936880822987
9.096119348657105
9.09348566771314
9.087948366026442
9.087755322026371
9.081153772195577
9.076459769419726
9.067737792354361
9.047215991235348
9.045285428136514
9.03956538800006
9.030124233421692
9.023453902770864
9.022122068238042
9.006950515646517
9.00615928894874
9.002251675018206
8.999033041206713
8.998062683053027
8.997548183709888
8.99490479051902
8.967405016560075
8.960852645479672
8.959817385250178
8.954914706778386
8.93782956411053
8.937201027231058
8.932277808452904
8.917631794612277
8.909669331832571
8.908949349761837
8.90734611067273
8.894364227439954
8.887361618542027
8.875112987148636
8.866567642809546
8.865678867525762
8.865489413942763
8.863013122128285
8.84774936392844
8.835045048526558
8.822925636894487
8.819989187929508
8.815181747064745
8.812381150980174
8.786987949187138
8.77941518814809
8.77342446992247
8.766142974859186
8.764934160582559
8.764120954077233
8.755807844728674
8.751795313638905
8.74962916891981
8.747035110939635
8.742489572704558
8.732471108636698
8.72969067191281
8.709797804491547
8.699202441179503
8.697422404360685
8.696671284998509
8.6930343505129
8.686418211608837
8.685461945590898
8.6819962249028
8.672863884197424
8.672069210512223
8.660998117086292
8.659201637492531
8.65294366352251
8.652281599885804
8.639617019077944
8.638454307600394
8.63009803567217
8.617328716183161
8.61715882682185
8.610372774392866
8.600833343213932
8.599820588662379
8.599030347500106
8.586458786120168
8.579087453002797
8.576816669467439
8.576733913055275
8.573493015373597
8.561743698094773
8.559644952016091
8.55085883716728
8.548959237765452
8.53823689758158
8.501592253960425
8.496426729075889
8.494010974212978
8.492648566977746
8.485164458333115
8.480033848491566
8.479570090291146
8.479080262026745
8.477391991929927
8.452864835806194
8.449550840519993
8.448951728942086
8.440700325781815
8.436470870724204
8.43243039099542
8.43196091460008
8.425915842220032
8.424966064745588
8.420491899353289
8.40941909103829
8.403544485236726
8.384438098076558
8.378534975996992
8.37789723141566
8.376689490856071
8.371545954437215
8.36980214357272
8.368503012950576
8.360813144914452
8.358030770514926
8.350538320850463
8.339104715371807
8.338959900185527
8.327991108810632
8.320746589873156
8.320573286382679
8.297479070552523
8.294279534188792
8.29192356492665
8.284498341653954
8.28048697734732
8.275733658377284
8.271607179281522
8.258889548934558
8.24847398645358
8.243155274201223
8.232275959979127
8.222490339685017
8.195941836269746
8.17548977377314
8.167569816082889
8.166255762843686
8.166028999892067
8.164874753071288
8.16014499126037
8.154164802397496
8.15348269199203
8.149239494819849
8.14253645302534
8.13609868024139
8.134217287676368
8.132248629626627
8.131017561620252
8.128150136547786
8.112850269912164
8.100662148788484
8.093949702632068
8.073713291711373
8.064830746826384
8.054475010235645
8.053626606511465
8.050675475528836
8.05052368647953
8.04773754829438
8.042694502467189
8.042079704484246
8.039939340622023
8.03969277281129
8.030155668451421
8.022462288519066
8.022456186447284
8.019121888041143
8.015437535425667
8.01159920149981
8.007389637905165
8.001664338703062
7.999466434116264
7.99378254775929
7.991187273982039
7.983979810554599
7.9825889202260205
7.963843321457252
7.954454397670334
7.954244312476366
7.942510761290659
7.937214250982281
7.933909725837768
7.927914941985259
7.919184983695543
7.906079573119191
7.905161274657276
7.902683941643052
7.900220719648232
7.8890499909394665
7.887503659277092
7.887249231487775
7.887141388312013
7.884418089207775
7.8767524798101896
7.872241255747176
7.866063025585364
7.86035523376522
7.860005180200157
7.853442631994776
7.843457095048866
7.839231887453304
7.838292044038281
7.837375502562126
7.836925393567466
7.833522245035583
7.824441726303785
7.822098962071086
7.8186514951467245
7.811650608463831
7.808603979848588
7.805018625621178
7.80307533331089
7.794885800357496
7.793866102237038
7.792799356908663
7.792399690672044
7.791949783078801
7.779133567112883
7.772344002782411
7.765028524589326
7.761781058033764
7.759584898260373
7.741128150899054
7.740673471463049
7.738682536493186
7.734999902998124
7.734001220487888
7.727031895529679
7.727000941895065
7.721439796743118
7.720080229071775
7.716388936427814
7.708410325841955
7.707773172921217
7.703378797968444
7.701753983238481
7.683820810988443
7.6837677411069745
7.682111746424413
7.6731364889857065
7.657702584939214
7.651052642386254
7.64486656749191
7.6407697007601065
7.639016333340306
7.638967745554615
7.63827160841292
7.633829764544002
7.629260875018515
7.62762676607207
7.622563358461137
7.615061664536032
7.614128782383927
7.612700665446703
7.611527716808702
7.608035653609205
7.606282404914198
7.60174410341401
7.601384351709543
7.595476402441411
7.592579392486611
7.592163697475005
7.590400563964388
7.580806419113048
7.580343985083859
7.579673446599401
7.57626216612564
7.576035039074543
7.575195539983067
7.57437113536769
7.571857143232711
7.563641989036652
7.563597331154606
7.553571456947008
7.552059720618986
7.543241290796026
7.541998514633194
7.540452363402212
7.53961955192739
7.535051340270176
7.533494470183923
7.529645077927571
7.527060033253647
7.5217198178023335
7.520216705025764
7.516435527495615
7.516401750541487
7.5148196417962465
7.50998024614492
7.509820358349966
7.50463539111331
7.503516447744096
7.503409085633573
7.501218294247046
7.4955430434910255
7.489990248738813
7.487686424919632
7.483083925029845
7.480564983240116
7.480013597630158
7.474158476394351
7.468877590645935
7.467697146404712
7.4662207089624655
7.4659080491414755
7.465813841982842
7.464579424791058
7.458108585433358
7.453731195694251
7.451309871987423
7.446191920438826
7.44401376442321
7.430088435732699
7.429063974710724
7.4287306511342965
7.4226713064189855
7.416899787852052
7.413113091628224
7.409121121304408
7.4051902895219195
7.402965341126565
7.402960505582971
7.400446657604384
7.396356403732145
7.394134320272135
7.388598105144336
7.387072105923112
7.380335876779734
7.375210285974366
7.369572422963529
7.362811320740864
7.3626720403055295
7.359549393950563
7.351988228710429
7.350956689058347
7.347491010489007
7.342423806544296
7.34094106833612
7.337117578521575
7.3339301446604415
7.307777711782268
7.307048140212119
7.295287014162076
7.292745957128261
7.29262934177326
7.291990717558665
7.291751313022775
7.281704124347076
7.278584293415198
7.277305865464275
7.276213187410171
7.274458377610873
7.272526466974147
7.267532367502909
7.26712321223337
7.2667862252060385
7.260691240920094
7.2604275500964
7.259195428953616
7.258771605013299
7.238176365920699
7.234191188374881
7.233842530533161
7.232567927509265
7.23238582707341
7.225678951818849
7.2256108468068625
7.221195243684231
7.215507473040661
7.215238498504428
7.212889060700358
7.2127284539312875
7.212369439832633
7.212168698304369
7.211868924883333
7.2117291880303505
7.2106888428539575
7.200187885848083
7.199654516319685
7.1879460546830245
7.178355632854273
7.174117310602958
7.165970535490182
7.161059296280147
7.160471718183989
7.1479599695493485
7.144450339499411
7.1419043555894826
7.1405737945512495
7.137453565910874
7.135385535746542
7.126058587059512
7.121238693912547
7.120165365299854
7.1186569017663945
7.102711269871939
7.101436264125475
7.097994341644164
7.097489257220566
7.096956634379234
7.095657931827905
7.0941728655015845
7.093867690039904
7.090629590096974
7.088162681369213
7.086217397249774
7.082233878396034
7.079196450764994
7.077483319605006
7.0750974193640985
7.074267526669555
7.070476738230564
7.063005180342172
7.059223514167826
7.058698716854717
7.055199158126361
7.0524982666024805
7.04198565825601
7.040859830239102
7.035852651744211
7.034174973962855
7.03153609905598
7.030959080513814
7.0284392252758074
7.0148539680468796
7.009431010230332
7.009120504139577
7.008656251473577
7.007673236597236
7.006219510844771
7.006155413247761
7.004151423402979
7.000675005735124
6.988135757595998
6.987943260645894
6.983727826307838
6.979313258908056
6.976643475466826
6.974245148098636
6.973879716108424
6.968620751771449
6.968312203825296
6.967673305379208
6.9675894536456875
6.966233564150693
6.961057912651942
6.9545381580187176
6.951239776049643
6.949773118632976
6.9489897265448315
6.947021201063123
6.943297708693185
6.943022217087222
6.940654967775231
6.923508434811389
6.921139828833252
6.920570074037922
6.9196032142078785
6.9193842949622795
6.91581618631796
6.9116779021311885
6.911167296783804
6.910318111221814
6.908830452809202
6.907957246546799
6.907795575123075
6.907261957727632
6.896755391802463
6.896265707448682
6.890058324044732
6.889999320187483
6.889827801024284
6.889390032983636
6.8881591515851195
6.88236615954002
6.882147517576873
6.8766851171093775
6.872316133135945
6.869677198592812
6.8693493543783735
6.867059997309616
6.857353031177043
6.855810341010812
6.854389043981575
6.851607387732088
6.849982509303199
6.843745432382178
6.840685562847428
6.835275449567043
6.8317403386588555
6.830120361361605
6.826468523492653
6.819207323773643
6.812726348072326
6.809122977959901
6.802714444073638
6.795277488450936
6.794526647289942
6.792958724593152
6.790120213560181
6.778300208379303
6.776334179922937
6.772034227024967
6.766266468854754
6.76449025685231
6.761684765873877
6.761124683950561
6.755521467029162
6.754846507414172
6.750234408491973
6.750174573147827
6.74483361982991
6.744645439392663
6.7405315580221075
6.739700654323818
6.738483995730981
6.733496069615738
6.730677473440267
6.730020350409603
6.728936609983077
6.726078113297769
6.724504269523906
6.72348331913358
6.715136385110101
6.712773733185435
6.710914015264991
6.70828776917708
6.708165624563469
6.707525448901624
6.699710846192453
6.698049985103053
6.697721857839127
6.695193313217024
6.6900390882703125
6.687791391721047
6.6781130938940585
6.676808020200042
6.675801656484483
6.675228444399256
6.672758930884202
6.670481577018602
6.670204088444518
6.66935889290184
6.669348748737904
6.6672375473371375
6.6626106016646744
6.661659490614012
6.658570990888634
6.656440538969168
6.655135903038273
6.6546672457167455
6.651860903866946
6.6488497041268255
6.647619708840086
6.647312831161454
6.640729274402388
6.625064909400254
6.6237013116267605
6.620532757915386
6.619762357641088
6.5965872085931485
6.59558532016807
6.593519616903454
6.592644055029394
6.590356030556478
6.588212901824386
6.566542818545905
6.565253609945818
6.56430548015458
6.563419028138255
6.562912079451424
6.562067243984119
6.559395611174858
6.55789278487184
6.556505057331789
6.55372303435957
6.551660531051209
6.551559040328151
6.548156935839563
6.547701630651254
6.542841124367083
6.536757475361673
6.535690224684651
6.5303861922197814
6.5242969324894
6.524214992545259
6.522394032932013
6.521069051638034
6.51704357875793
6.514287953221801
6.509648481843913
6.508223278958016
6.504929870444796
6.504017304418565
6.50016553619181
6.498640991033369
6.496249495238694
6.488912948575795
6.4880332445742
6.486834004739373
6.484638658513953
6.4846328338357955
6.4828313128013235
6.4816960420954235
6.481622726176826
6.479260306080484
6.477283274200086
6.473603184717279
6.470308911223125
6.464847083481662
6.463992033373212
6.462050526754503
6.458032762953508
6.456641938575256
6.452642718386105
6.451988740314762
6.447547613565574
6.4370122798861065
6.435313715563065
6.434498181287751
6.432534672125648
6.4307032052153055
6.430473074429625
6.4154840374275395
6.410452193458989
6.406167718730055
6.403980057768102
6.400406252324007
6.39929004172207
6.398266005047945
6.391220743502736
6.390251459407011
6.389179504127403
6.3882723209737415
6.38425732744275
6.373321363951136
6.369360628266527
6.368792271990145
6.367541314154923
6.367199598003495
6.363382792050877
6.360889665242675
6.360324846095586
6.354611074968422
6.351723182090684
6.351183932548079
6.349179288401194
6.349049499278791
6.347347989410866
6.34734580629793
6.3470347389703825
6.346627583608739
6.346547680610174
6.346419760465984
6.343562984617048
6.342341760499716
6.342023115849326
6.342018072647634
6.341225057418204
6.340830418803851
6.339351515078544
6.337671581017407
6.325382019508886
6.324382205308989
6.320684990099761
6.3152110041349125
6.315060679153948
6.31291996329764
6.311314066295479
6.310470845697699
6.307485523667848
6.302829904199893
6.299023026597158
6.294377841592317
6.294225434981124
6.292458582489745
6.291374162742127
6.28930609424318
6.281140313414258
6.280913256644371
6.278101579550473
6.276535152825458
6.2738528915953715
6.2689798411153905
6.2628383129222165
6.262493575363224
6.2600410451508335
6.249152865858683
6.245821684382528
6.24442368043873
6.242400918002908
6.24179385134048
6.240147478300417
6.239537419513786
6.23885447886709
6.238507829877733
6.236272727838514
6.235722551226322
6.231537446480245
6.231485717998385
6.2275061727219505
6.220675070924477
6.219911085177001
6.218097780679766
6.21432761134958
6.209126718595869
6.20709222797176
6.206990863239174
6.205950554225684
6.205424462698106
6.203847367593875
6.198549337212555
6.194193251412888
6.192576284133509
6.191347843092858
6.191251976534986
6.189358655276241
6.188121799771581
6.187466195554768
6.186016944593177
6.185804294494253
6.17187596426112
6.170567333450428
6.169170599157583
6.1682487221993085
6.166760487618284
6.162023164620902
6.161331710528258
6.161318859656859
6.1587669063797605
6.158626072295813
6.1545279834100945
6.151069486108204
6.149987439477329
6.149900666802919
6.149207723731297
6.148261301796267
6.147906086238365
6.144051867067907
6.140794514495839
6.138998914403793
6.136952915622233
6.135378011669694
6.134115637950917
6.133152204140194
6.131434127442283
6.130952216109308
6.130212713622827
6.129256553138315
6.127736410607705
6.126787066774817
6.126445315473601
6.126081417193262
6.124226896772813
6.122052963432962
6.119409697924402
6.115327889856866
6.114438243155544
6.1140085719859965
6.112598063484592
6.110038302286627
6.109022717465871
6.10881384864833
6.108383181821752
6.1082563972272705
6.108115796785658
6.107900236651368
6.106434984431919
6.105343697851899
6.104455031272929
6.102801990542961
6.102071627948261
6.0982793924477505
6.097922410825378
6.095888209952602
6.091403534541539
6.087035925531259
6.084839713767931
6.082703566342787
6.081180707345993
6.081003550827504
6.079668823326001
6.078090083848559
6.07804344875409
6.0752066052902105
6.074347441328857
6.073015537548089
6.072190741095065
6.069132102076619
6.062390863886826
6.062047559448431
6.058232407999304
6.0528768647455955
6.052031921575535
6.047899297711633
6.045435534869911
6.0444863332149925
6.042217901123335
6.039770070966856
6.0385870037063345
6.037752375881532
6.035988551284543
6.034614440815611
6.034477454484532
6.034455090697303
6.033875913832553
6.032014551137115
6.0266721241664065
6.025623322175524
6.0256053933266385
6.0238843587448105
6.022164363083817
6.021206776551983
6.017564194984789
6.016224061565058
6.015798118273443
6.0154979491444145
6.013586866210247
6.0128150926560755
6.01182294582215
6.01181155214709
6.0109402404773045
6.009461092026607
6.008779391758386
6.006964460574071
6.0037464281024375
6.003703432170567
6.00159480682091
6.0005430323484505

SCALARS Material double
LOOKUP_TABLE default
1.0
1.0
1.0
1.0
1.0
1.0
1.0
1.0
1.0
1.0
1.0
1.0
1.0
1.0
1.0
1.0
1.0
1.0
1.0
1.0
1.0
1.0
1.0
1.0
1.0
1.0
1.0
1.0
1.0
1.0
1.0
1.0
1.0
1.0
1.0
1.0
1.0
1.0
1.0
1.0
1.0
1.0
1.0
1.0
1.0
1.0
1.0
1.0
1.0
1.0
1.0
1.0
1.0
1.0
1.0
1.0
1.0
1.0
1.0
1.0
1.0
1.0
1.0
1.0
1.0
1.0
1.0
1.0
1.0
1.0
1.0
1.0
1.0
1.0
1.0
1.0
1.0
1.0
1.0
1.0
1.0
1.0
1.0
1.0
1.0
1.0
1.0
1.0
1.0
1.0
1.0
1.0
1.0
1.0
1.0
1.0
1.0
1.0
1.0
1.0
1.0
1.0
1.0
1.0
1.0
1.0
1.0
1.0
1.0
1.0
1.0
1.0
1.0
1.0
1.0
1.0
1.0
1.0
1.0
1.0
1.0
1.0
1.0
1.0
1.0
1.0
1.0
1.0
1.0
1.0
1.0
1.0
1.0
1.0
1.0
1.0
1.0
1.0
1.0
1.0
1.0
1.0
1.0
1.0
1.0
1.0
1.0
1.0
1.0
1.0
1.0
1.0
1.0
1.0
1.0
1.0
1.0
1.0
1.0
1.0
1.0
1.0
1.0
1.0
1.0
1.0
1.0
1.0
1.0
1.0
1.0
1.0
1.0
1.0
1.0
1.0
1.0
1.0
1.0
1.0
1.0
1.0
1.0
1.0
1.0
1.0
1.0
1.0
1.0