# vtk DataFile Version 2.0
Unstructured grid legacy vtk file with point scalar data
ASCII

DATASET UNSTRUCTURED_GRID
POINTS 1235 double 
71.3683373643429 69.3395792851393 152.727677458772
65.778172635277 28.07384360254187 75.17169645280237
9.940504849146143 65.48548800801251 165.3787525444263
82.86166880356765 25.49779168217775 19.848901889264745
32.57798415561589 71.1049842417867 182.8683359898904
56.77646976869116 65.7744161374319 80.05626820266937
76.90965129364719 59.41118067475626 169.1849004704003
78.90149281768518 66.42868113801748 61.82860254065197
79.46784023570575 89.1335663817204 172.00303140855806
35.39788646841048 34.81038217534885 53.056978131447956
10.750117975670443 72.57742739198893 88.6767170330304
71.40987751404325 88.93600035715474 77.83739474672448
50.70399330207667 31.04994579838452 157.15571926377592
39.00646796894019 24.84237188410212 158.93235541626382
81.83322997501402 74.07945524165899 41.313699066984775
14.390334994987695 90.30803084274496 108.71253421145066
26.393950555151086 82.3380427646197 186.3798756332544
22.19977795986365 85.1490426864591 36.807592480449784
55.93287953113221 45.842156455729764 107.28125295562734
35.79716225472536 63.28361813241361 30.273565333998988
53.50278642450979 14.970899393137573 25.0054444845385
14.020664568269904 68.84417666510646 19.430095252973466
39.667757244916 37.72820169977532 153.04795918799064
89.20166352712613 13.289149331217853 131.83318470898192
86.75864070314508 31.360925549972038 160.18399482108933
24.304916947713345 27.274311803393967 41.124767590235344
55.59817958831524 54.77645823138555 93.2631340308947
8.949999252950708 49.051667942499314 147.47459934088727
17.41297750015474 40.07305630187851 24.033347949237157
65.90505235566467 8.45535061726228 9.88469356221803
69.01791236880656 38.665452603220984 166.2233685883005
84.40047104016145 70.91271696323544 81.34767803756914
75.75597966298227 73.0246298078458 140.97951996069912
44.198789686892766 50.898898575799564 136.631561164384
26.92267316991621 53.94795186142867 19.31325764978473
64.81896059603592 33.68304315279906 141.29108541797765
58.74906182685391 30.338468651908983 26.445341534394764
29.627027902825667 12.65210889404533 64.05006627050888
38.41294295006872 68.18966029031313 121.5607951724212
91.87446533006008 18.18679318005602 61.869162155204236
52.580347762072 13.411927928570144 44.11968197954283
9.102591491782384 9.300678583646793 95.3682496231733
20.51905356004856 54.04839946234728 164.35888451682365
31.539548968847292 85.48737009553761 121.6385785140198
53.33794533386215 18.642202453721403 102.86085313360006
83.90008694370833 50.41014018044399 70.95882358607625
17.428075478255362 75.49865041380488 74.23755384182611
36.11579168409425 43.4848150783411 24.646699296756438
91.01518128536063 32.456657215817955 64.67800123736099
64.16943797957019 66.85897896220507 94.05030712181605
20.7486690752989 22.079152180406837 178.3690214021782
56.03830542775425 66.00288063400278 117.09098720587805
86.08724015544198 41.505308296649915 152.32915375707842
68.95990408435121 61.71924503123737 190.612139983168
65.7951438544784 78.87773252983341 102.32527690199895
42.73680261698612 53.29044126657056 100.43226762344646
66.88582786227906 29.059949842882123 41.48678795714568
81.87195332540398 29.473198685140797 189.78552393305267
28.301345013866317 73.99946455860129 21.020244164405483
41.05486099090047 29.061317214764287 43.11088711312507
18.610163799818825 27.546197199776344 106.38263362348971
10.21038342457654 87.52886977601285 83.53091910319564
79.75875702263977 74.00843956067395 170.02401076985916
64.83973145238649 78.08793581588007 127.38827774629264
31.44749711982096 42.794406689762646 84.4447231323265
48.73003354380915 9.763892014187823 58.15609133022331
89.60736036839927 65.24607251058556 177.8080227950573
11.982019915315279 19.9100192492372 29.403304381004332
87.00790001673691 10.274438976990234 119.36574118251713
16.60855011183054 92.72179170774345 122.43242892841157
23.38210732316631 72.3709066208179 125.92812759918792
37.71600442170273 47.02474660929739 188.05080737806668
20.294231378821998 51.957860929331744 96.61433417765492
47.55288907490046 81.87654443210008 142.15113507286944
37.425720130549415 66.31705113626772 71.08069701984905
73.49113782102357 55.76533652608421 77.89811888839408
70.81804269319747 47.732200442290534 182.68347039411395
82.03899097198632 9.173376829814849 141.25000579487556
10.425968858568446 52.87917954268015 110.32384682868732
10.521165680438516 8.678090274850632 51.14634270910537
84.33028000112348 41.40785069843727 19.524560617823138
41.68060872585298 12.113394046060932 116.22328342117746
48.97040462898156 32.157535650856204 52.09616357212729
65.02253824556124 51.71827383133927 60.7646722980314
53.51980691774219 83.76970051371548 175.12014465502676
52.95106885622 71.89061906229763 36.864023071139464
18.651160992057722 42.46925061168717 63.1498993217712
16.781449315888004 72.48157036510202 152.70919699109746
78.71431563136012 52.63229897835019 156.7910493374374
67.35203686327208 37.9568498494405 9.607595342185332
10.518151813415006 91.54776631457764 154.45030765765458
9.609582762461248 19.32659428984173 190.0610137502702
66.12266880759239 52.80055365429092 163.6326052920404
50.994983264029926 46.431086500333706 49.017778188671684
16.459023241329877 33.943599246489036 164.29290372871287
9.714979996962489 27.231920088462566 137.90515138898607
44.67340139502691 13.16310391563416 174.60488540318306
77.96100738410148 62.639721572206184 88.95112093045876
58.681630644927836 71.78730763517783 142.39616305077564
43.928457000333786 42.389708011417255 61.651341510791106
40.652562045467526 45.02927987335421 109.50492633307142
55.652156165271634 75.77827256591722 52.64796724257348
60.779439120409755 49.422794357349225 120.82999103576358
15.832403284827615 20.802587460984938 10.406608794180611
14.634739227107273 65.86415048977133 60.62531433120337
70.04339030084348 30.651001416650054 154.00068491101985
35.48815712283135 78.38666942508246 95.51651726459394
82.72964659539747 18.59608672425577 72.6617658288648
86.22861584157268 66.26150977594769 20.289210767108706
14.32462628214233 20.70048837022466 46.99760870313147
68.3525376069665 57.258675222539516 21.26070219880902
46.063720388963056 61.77512135940647 166.7876498616641
42.795316366630765 26.2093248429411 185.10777117437675
35.63083186559808 28.57097613946282 99.79910586765298
84.38923540070512 78.15821269729936 158.99065546496556
17.599506129077987 64.11996272225662 82.32419780301365
57.7168235066285 6.480263404673913 161.42429869249582
76.1823173992351 76.58544034563076 73.79336111265705
91.18333552210595 62.74285452445797 121.04675734779553
86.2519699156103 37.17020043053394 174.1107912019053
53.45156350396854 28.494953004844216 117.72271927924297
68.66250585402327 27.615889462697922 55.43287366565768
77.16847570982443 9.390448876244655 170.88701052242715
30.312964135562126 27.890074338326993 183.89210732388722
65.6268104052266 29.542613328204617 177.35308180984597
60.57784465545929 46.259856051232184 141.80901106163293
29.641389608238185 30.486237430645616 138.93919959717545
49.77841931781036 16.630512634970586 163.0023481465414
9.523936636464878 91.48306764120656 15.156335504241426
91.20103190896903 9.90468428829548 41.35566018856231
36.30498381122339 72.01837082970064 150.06517854721608
62.483770887610554 25.15939655854732 108.9707803278477
30.142562501668927 40.96651940944195 171.0199328887468
62.87115081334853 81.24469497639326 44.84424596351025
13.887027519148193 33.27068119981219 40.593826480150646
21.706298469315225 29.398750058647238 126.13061631838582
89.86633945347339 90.30465596414042 184.07763436458862
31.98146801778585 23.24511867233069 126.21969863047637
33.563482068399104 53.77698761727423 39.7900004400153
72.79679433253135 18.83311670090941 109.23450190196931
55.70934189024612 9.135367986774398 85.78574223231217
37.5806435908469 79.21341240616384 38.30658407007617
18.501275340929794 63.39313682842943 183.84738789838286
87.39266487931555 46.33923292359919 182.67973937140675
25.890445826111396 9.224257450188794 190.22527411743084
89.81963561816062 50.97560513058655 91.09844377217163
32.37359371347977 29.991769636113332 77.890784998965
17.861718186970556 61.294856865429715 9.454839474840442
44.09570725195086 31.72223648782134 88.69102268847901
70.49841668220655 78.1437000417841 180.2895558254011
15.077261103512802 66.42352655402905 99.4086119780324
36.61251798993275 89.73642310256696 99.4188040526998
10.522903243965551 67.74507376659025 137.67940208606126
23.388979493863708 71.56227888546081 35.20466712825432
16.595542541491405 6.538274764443717 72.71914334024386
59.42713501374831 85.49358025164078 135.52374002333173
60.967465552981174 58.75112008496973 150.24821689421708
78.84341510261518 10.535930428395783 20.274976468895638
7.846669448581869 47.074829836466 166.3829334286309
61.11076051878387 86.84368219678578 56.21375679516363
48.60229312226062 19.344501866914335 74.92575189035915
90.90428295884887 72.62828568918015 135.68957746640973
68.83127980041779 45.912868587844955 94.95361391716145
28.27751009358668 62.015912954952285 91.08373932026218
9.57669169107214 69.05701635118177 111.52375958824834
40.2337345190501 10.890474959657272 82.21833230413228
63.68949481834092 9.449462728087116 113.87757018580595
53.1473739703459 29.385303259280484 9.03240527642738
38.97833746605665 25.288406168904437 9.13201724701945
20.09728515251933 13.38348006183848 138.45069876108852
89.54817799651549 92.24649104242216 36.39676423074087
90.57198162710071 38.80404922020469 127.6429359294473
8.001384642549727 55.260018156087376 130.05211698925552
69.89030035849349 88.52952131781196 7.534109782561793
59.44738067769672 49.26265894125543 79.18429737437641
73.75266665973835 25.907270850261085 31.90935037603697
32.55586432560204 44.82233923151714 8.199570109070516
8.123212979905675 29.550199588729082 124.30723195735642
90.24109055030361 81.61331392264789 107.15099464582251
9.55723657649789 58.82825829635515 73.3681911412276
[...]
POINT_DATA 1235
SCALARS Diameter double
LOOKUP_TABLE default
11.996201578862081
11.949652173419254
11.928268417404626
11.923481641634938
11.918013906310668
11.913985653457432
11.863275025348466
11.86148885755765
11.833101154647574
11.81541974688118
11.800850497088367
11.781335486036465
11.759050719037724
11.755547366256717
11.753123748688113
11.742832655058047
11.730338092268397
11.697614534808045
11.683677294871103
11.661050024242439
11.65509111964407
11.652697866559642
11.648174514109083
11.608651182620793
11.60697185311269
11.576881188670939
11.536611199522152
11.524859862084575
11.466917115527103
11.43723487349564
11.429533199788233
11.425105659202233
11.408986339756297
11.398170082387965
11.394990050759452
11.37835966544024
11.368594474777566
11.348280473163774
11.347499969074326
11.330922829931112
11.322427227151143
11.320867871635908
11.320052787305997
11.315931753760216
11.309899689236431
11.305865149140558
11.30287295745179
11.277709221491977
11.268605020317839
11.260768854207207
11.251509043341207
11.249578254365906
11.199331317278252
11.161780390894808
11.15020997429235
11.148772743807049
11.130642205823719
11.117438873373793
11.106522555497431
11.103144916395369
11.073034185727208
11.047568082441533
10.989483685121765
10.959316140424392
10.954982231652462
10.919190239441523
10.915315400661816
10.897352901775866
10.886025199754084
10.872299325992289
10.868460841002126
10.86467008821387
10.859729386851047
10.833024844948104
10.810549829034134
10.79397695140455
10.790677121022824
10.789617681377212
10.768107979204277
10.764242949509464
10.759293823689779
10.750292760634737
10.712092917842325
10.708099789474273
10.707914528507398
10.704278951868455
10.700447310881735
10.692696532327444
10.691493385689204
10.691210831311933
10.679531061924154
10.648517338011645
10.644704938212518
10.634116377054262
10.62488573219622
10.617530935883531
10.615691020270084
10.587924593437464
10.56694608387651
10.557805744792553
10.516444773845949
10.496404270469291
10.464532661626812
10.458998949340401
10.408861481294412
10.408321358116062
10.402922552967278
10.374467060060848
10.363746159572251
10.358429025497124
10.307112296917031
10.298377820533865
10.293601848968025
10.29173531313588
10.287731356949758
10.279320113168957
10.273720048508853
10.254271662895604
10.246969751609859
10.242749919100156
10.240944332733935
10.223722331905284
10.209614412257045
10.202688933962516
10.202277438067457
10.18881976848689
10.166502373465109
10.16132151814681
10.14165418689851
10.122850436714334
10.11724483589256
10.093385507267321
10.06097320847072
10.053640349551335
10.038508376723499
10.031654018042143
10.025717918295012
10.01563339726814
9.990061492243992
9.961890584639772
9.955783254777405
9.952277024703504
9.946752501152893
9.943082293315749
9.942097366584647
9.933337966359883
9.926297305473915
9.92084367118504
9.920104764753773
9.904658681207033
9.903324785336014
9.897958646089211
9.885515012182472
9.881883837222391
9.88119449830097
9.867058118173953
9.866565651289736
9.857170152835069
9.841204564789237
9.818742489367782
9.80593132869197
9.805115864301222
9.802054523277075
9.794823633520894
9.7840812439857
9.783371826519103
9.776409943811437
9.767280018142674
9.750463162758988
9.746294650838472
9.736454970431588
9.728806622323576
9.705498079075737
9.681644223290954
9.624372213424511
9.617309653620465
9.610775895366103
9.60900203687948
9.608750744425278
9.594847091532273
9.594371700206231
9.58029847517231
9.577460497825982
9.572979127936605
9.556074673248222
9.55538643674649
9.55521350249532
9.541595367782161
9.539379436342692
9.52682297628023
9.526621545926302
9.512686103422704
9.511641918981148
9.508403791852087
9.470545885158657
9.458042124908316
9.444080721871172
9.432095445085595
9.431411626612695
9.421937569945747
9.4207458299449
9.416198948364016
9.41233137016562
9.406269885939887
9.400533691850226
9.393950871976596
9.391589356700845
9.389705943667348
9.368586864380532
9.347820351460006
9.32994913976331
9.306344562897117
9.30233334985751
9.29184442568661
9.282691064562158
9.239539802769642
9.238856214291006
9.232687270898552
9.224391954107128
9.201615078073118
9.187615109302989
9.181991180914395
9.176016550491639
9.169720383005302
9.148799105563983
9.147595082106893
9.146112331009006
9.140537448556035
9.138054533277696
9.125604239834905
9.118123794091108
9.114352078045947
9.114038939908244
9.102996476923716
9.094167101601126
9.093585375652218
9.086544613622245
9.084643933354855
9.079580867287271
9.07762100807346
9.069278379382183
9.061229431567426
9.03688521868947
9.032362610474358
9.027734072723828
9.022259343982318
9.006158866760373
8.996848401860394
8.996653326113947
8.974175586483351
8.974131980978846
8.960481980146014
8.94950189913191
8.946559053188059
8.939001848284372
8.935189481359135
8.935081658711178
8.927343473905381
8.92173803149171
8.91429903173817
8.908373643831677
8.89907925096511
8.897711239643739
8.888814691151548
8.88797976546653
8.886536094016854
8.873743822716346
8.865572651084081
8.850222497586271
8.850149880757765
8.849737111931423
8.843132184577952
8.839844032920226
8.83971221753214
8.827882627076836
8.817958408434224
8.805642284514567
8.798109374371506
8.786014243473808
8.769094847237165
8.767620418595683
8.76182250539612
8.754430828872337
8.751337946333676
8.749383637241138
8.744962543285059
8.74267746854455
8.737109979103963
8.73528828402505
8.73100317880668
8.724382145763633
8.718635216731005
8.716556217757686
8.71490617187665
8.712154743513068
8.706295774046941
8.704915833789412
8.691062618943434
8.690759149639067
8.689500778175557
8.68604792166191
8.680956806042605
8.665642465264613
8.661466456104732
8.658733095267777
8.649991170606325
8.64703272263938
8.644985420461326
8.639385437330358
8.63919275831827
8.638947869673466
8.634352970924025
8.632667776285
8.627297749889816
8.614651614848954
8.604423028607833
8.603282349483452
8.59762880076927
8.590683142617982
8.581003425481622
8.5806964118425
8.57109615053968
8.568266445016224
8.567700915603584
8.564532744092858
8.563609733528448
8.561116301519327
8.559610374432859
8.5531066920417
8.535470878854035
8.525639496750703
8.522410955792527
8.5200533737974
8.512918340503175
8.50333341033186
8.502501974996354
8.498660884907945
8.496151381405562
8.483763261439456
8.483411289210972
8.474405229997322
8.473427573239496
8.471679013120383
8.47055130788021
8.46856405126999
8.465735311843948
8.460144384540149
8.45383145574306
8.45235657621809
8.450638583707445
8.434808026431806
8.420511765993364
8.419286209688904
8.414679107278841
8.413947246059962
8.396103598180744
8.389740220174254
8.389437538092803
8.389028323770159
8.386889028078954
8.384154926797336
8.383223858595272
8.360454684640052
8.355699736624414
8.355316345251405
8.354134535018634
8.351352809005212
8.347287366523457
8.346688280294545
8.345765618016188
8.344469213290377
8.327251952072471
8.318134502397001
8.303269345329918
8.295126994031046
8.282312910492301
8.27398407690978
8.261979126080366
8.25946285579892
8.238307448955794
8.235106696443014
8.230858155504654
8.219433206339373
8.210708744313939
8.210060616322833
8.198946512029618
8.190971801611884
8.186674407505777
8.185443765271705
8.180690577171251
8.177543060782064
8.173936518993967
8.169235158053702
8.168411028749237
8.167702033560303
8.154873559162695
8.152041455990812
8.14841223864767
8.1480378384577
8.146706310590119
8.146618610003369
8.143204252738933
8.14194836254342
8.140732589133886
8.127148630764207
8.120090326794285
8.119138902633601
8.117108933596121
8.111200093282452
8.110998363151687
8.108488272626698
8.107551571110829
8.105447643698872
8.103718916331776
8.101549665539864
8.09794227746882
8.097637591742636
8.095986178911957
8.08093079671577
8.078669952061176
8.069644287827439
8.065402691708085
8.065099090320881
8.058602163399922
8.058048376963164
8.056904752294598
8.051342655624182
8.034308441589792
8.032112287722633
8.028656871748757
8.025369576130549
8.018575713186646
7.995421309498161
7.993899159293686
7.989149136840096
7.9880047994982935
7.985234877250703
7.978680692241687
7.973291512005078
7.972757541556006
7.970068193688868
7.96930322488065
7.965927439314044
7.964020302549928
7.953819222062149
7.953357997823606
7.95132786348398
7.9487520529271585
7.942597382148419
7.9326118366765925
7.931989776717127
7.9306402192307175
7.9302178962682675
7.927387984049695
7.9252573162386195
7.9192140506020525
7.9080032323868075
7.905724413306675
7.901346453285187
7.894470799076522
7.890922336106994
7.885856138322591
7.88441349409149
7.877873503110739
7.877019350672131
7.8764706962771545
7.875271579864547
7.874779603003605
7.871834000519853
7.859441144142075
7.854901559023755
7.851544311510371
7.851388270250746
7.850926831715398
7.85084053607782
7.849796710260046
7.843164415766946
7.837604587422659
7.833564281099275
7.831977682516345
7.826808106779915
7.8253521877129995
7.823067720655619
7.8229275310849475
7.812222125235387
7.81129155487616
7.810559517654441
7.80958047140624
7.804983962260074
7.792209737093738
7.791949389205277
7.7905039495531465
7.79042163578524
7.78776211530702
7.781744362800139
7.77533550637521
7.774624928758479
7.7666570080529835
7.7652594625156866
7.763149401659518
7.762583302122705
7.757828074984127
7.750382668708385
7.749520423126474
7.742981263384052
7.740464802755273
7.738066184391052
7.73303495832425
7.72928879664592
7.727978767427373
7.725872715380868
7.721076533071045
7.704009458810482
7.70238489804518
7.6982897437138025
7.692332938093557
7.685757323735697
7.683447928986578
7.6795445107893485
7.6793633563334485
7.678669964656431
7.678327082637781
7.672713030491206
7.671508847729076
7.670863780780297
7.67082003908029
7.668454510471307
7.6585313021337384
7.657601795554148
7.657217922532471
7.64543377822754
7.638207863761231
7.636638635531158
7.63530665113713
7.6339670730975655
7.631331665964261
7.627238624015751
7.611153678302102
7.609298025330874
7.609102415051754
7.6084879440094255
7.600441399516345
7.598118306595528
7.592391448035299
7.589025905510744
7.588052866730303
7.587685572931052
7.586095895047914
7.581916533636793
7.574094318330438
7.573908155512004
7.573172439197636
7.569266797172741
7.557813300781595
7.553769911496853
7.55312087855193
7.553107150795792
7.546919349133297
7.544896549963262
7.542542587983888
7.529734582605502
7.526141770386894
7.526108486022212
7.524032643885295
7.515625483391528
7.509867623169267
7.509196827569779
7.502250634139736
7.499154431307881
7.496426188449153
7.496073494682732
7.494486785591812
7.481335726235298
7.477414144989092
7.476008653981522
7.472545298898119
7.46302073936582
7.460920264704192
7.456480005205551
7.454805790521225
7.453853520465193
7.453325685659688
7.453080616337881
7.449468542931146
7.4494216219455485
7.4480383194791475
7.446065084918777
7.4429498216699725
7.440209648174174
7.4391902293669965
7.430634505123239
7.429016408479752
7.428252515837391
7.426755136077053
7.417337219247553
7.413229253319923
7.412661187206112
7.411206775539579
7.4106255855666685
7.404713240436536
7.3919690148400505
7.391306343021494
7.38868018720682
7.386762919360633
7.3859915768743445
7.385241973703465
7.38517906124346
7.383440556016759
7.381399845932445
7.380124812831037
7.37936012035974
7.3739210183936095
7.372274451759644
7.367536230910083
7.3659239336244084
7.360000753768986
7.355936391190207
7.355343485028303
7.353797080161159
7.345784624040725
7.345359222222256
7.339588744432694
7.338578708130521
7.334601057908647
7.330993767799791
7.329471324682331
7.3261462685957675
7.3219401031175035
7.316523359824911
7.315598063659619
7.314232229498467
7.309132697021788
7.309024760920634
7.308449511279247
7.304239217184115
7.302142140105461
7.299270490166778
7.298847962276365
7.29828538149955
7.285987769237387
7.282729865262521
7.2750734748880195
7.274809873637634
7.273013759184354
7.269959376548334
7.269934231826374
7.266539814660467
7.259705252370436
7.258733268816984
7.254337823310198
7.250371822174336
7.245485942733301
7.2349835575337895
7.232808522390119
7.231069729364808
7.230984755508949
7.230265904123312
7.229406613995084
7.226895041621315
7.222072809846239
7.221341362993975
7.218858981195616
7.2145914999559135
7.21041133068757
7.201205082410626
7.198247519815189
7.196512108648154
7.193613373683826
7.192698872193645
7.181221178797099
7.166068151985941
7.1610621104613035
7.16074747896101
7.160386034606912
7.157351560491094
7.154558651029858
7.1534753824397
7.151824781601978
7.150436760057168
7.148694962480618
7.148368526376966
7.142427159955144
7.140711942500568
7.140253088100014
7.1387651422106675
7.129502548336642
7.129456914014961
7.125127094471707
7.12502651735309
7.12468844877306
7.124322958447724
7.122471721086258
7.1223332349806805
7.120331430979071
7.119154857525526
7.118737625747984
7.118704706344859
7.117953979066266
7.117171704076593
7.116792237317922
7.116364864690855
7.115651117357068
7.109987085878869
7.1047654054976395
7.094720434513456
7.087326125523252
7.0852329318662814
7.08203850903949
7.077112911199327
7.07437086523719
7.074173837260969
7.066800052504499
7.062995127302948
7.061244230542643
7.060969380081345
7.060365254572888
7.056108391121045
7.053885466529928
7.0512344828032685
7.049739147059219
7.049033753179684
7.048758286410337
7.037585162879705
7.036401972996069
7.03446867943409
7.034121187373675
7.03253811816942
7.029991786456964
7.027225778147594
7.02501631669077
7.021735087173232
7.017402001010275
7.011729063220459
7.010427959415565
7.0091926499905615
7.00835606833679
7.007321341451027
7.007064882384979
7.007060007535614
7.005272485191753
6.998995690995537
6.996640151784179
6.996633808319531
6.995147098607653
6.990659855752144
6.990005284876993
6.988681178919094
6.986765121377658
6.985113243076629
6.978504988007602
6.973110788691281
6.971033413309392
6.963142673017938
6.961071250446841
6.9570834310487175
6.9565338617938774
6.95017032448974
6.948036042040381
6.946549922957862
6.945559928414952
6.942688823817326
6.9424973783106925
6.936915378163137
6.93529448815715
6.932226802777519
6.9291600722375435
6.9286034253855675
6.927027902781404
6.918201409671195
6.917199702876589
6.914993628870679
6.914505919244036
6.913275678158141
6.912561347152456
6.909930740394039
6.909147367047055
6.908529675261846
6.903555135728393
6.903277778411045
6.89798567197229
6.897007496614707
6.893702311460993
6.893380952367003
6.8927486632469
6.892554396054731
6.892429250636944
6.89216421325962
6.891687478024318
6.886204355590768
6.884347300972053
6.882702988587197
6.877301914931074
6.876467121545015
6.874860386082588
6.873116539634609
6.872707833599597
6.871382984010277
6.870599722596664
6.8664487024835275
6.860499876210101
6.854127815389031
6.850279432699596
6.848529908725311
6.848526538113351
6.847066123166204
6.846973990863717
6.844188062303168
6.843150515649173
6.842239861375096
6.838730751329283
6.836580843699726
6.8326978802709455
6.832316811097252
6.832285407128817
6.831644243238566
6.826291745273773
6.825758053304485
6.819310421865321
6.819263296640841
6.81863708677513
6.817611264484469
6.813270678086495
6.806672577364347
6.805069364558402
6.803886392247371
6.798691299609974
6.790647933079891
6.788991002642058
6.7842757992982285
6.784075781511488
6.783030031295304
6.782647325764026
6.7777741406046275
6.7772025647578715
6.769081876896143
6.763176644668095
6.761308452353883
6.759033588650006
6.758502423020946
6.757353211218433
6.755113089960492
6.751986794522467
6.748352982228276
6.747831083975758
6.744947716290069
6.742022584271812
6.739169268507621
6.738107995360879
6.736265199093204
6.734046397628928
6.730785647269023
6.729667567652067
6.72955643003994
6.7254246713298365
6.716443216222077
6.7151973774868265
6.712347993097897
6.707140152523419
6.706820354586227
6.705642568412811
6.705031950357034
6.702169428868325
6.698536516723815
6.695610509505601
6.693640859236075
6.692125782216382
6.689363044851888
6.684973615663559
6.683283190004838
6.680687721840624
6.677876928986457
6.669760740319896
6.663986881058678
6.661925237286888
6.655529686334174
6.655226312320504
6.653441464438415
6.653237835399731
6.651189348223244
6.650037312469895
6.646676153044318
6.641950921129734
6.638018507683547
6.637965995649816
6.63427830549144
6.633565808984663
6.632116340134331
6.627474617460734
6.627301662399483
6.62683914515822
6.624914339983311
6.622025420186335
6.618713691909171
6.616973782578457
6.615117835654314
6.614373915632166
6.613771639932683
6.6085547005303935
6.6015886906792485
6.5996138508442
6.598792708703641
6.597549199667846
6.594059585219989
6.594015058644537
6.589886302493949
6.588434306596054
6.584537224292257
6.583919117040051
6.569785221355298
6.566235035879556
6.563911214390389
6.561375602008205
6.5556042992146
6.541927822384643
6.537636132209078
6.536745902695068
6.534348515586539
6.533719566840222
6.531401362880466
6.5305125407500455
6.523565822638777
6.521793990195133
6.518833057190175
6.516756574411941
6.516493577147065
6.51517385122009
6.514494840817588
6.513147021554729
6.508890672258701
6.5080709481592995
6.507942562872161
6.507302180606159
6.507255944575138
6.506501490835539
6.506209858545999
6.505644563956512
6.504846309417161
6.5032579173203136
6.501954923154237
6.491848871853211
6.488418330081266
6.487744567374524
6.4846615737052
6.479233282654661
6.479132995496148
6.478726889526724
6.476481502879658
6.473197500852374
6.471930603783679
6.471667353814432
6.468782567735287
6.465365092835123
6.455622006446652
6.454295872847165
6.453673137522596
6.442443607219884
6.440286024776766
6.440209440073969
6.439859474841175
6.437317212557831
6.43456945721111
6.4311497009462055
6.430954915570288
6.428917822951792
6.427146374617921
6.418369537043873
6.413381693559939
6.413044385318155
6.412035767446664
6.411717125132073
6.4113135070412755
6.40998683949922
6.409010012324842
6.406686297374449
6.403568986595557
6.402668427620176
6.400340980050823
6.398430957335757
6.398312150077992
6.397806713330444
6.397176054610386
6.396617559516574
6.395319734781685
6.39485373931427
6.394019749415504
6.390914873160355
6.390793427067594
6.389045000503986
6.3843030852141585
6.382824127249377
6.3824332109288635
6.382328029805405
6.3783271035572175
6.376985104386116
6.376262215303374
6.371890371871171
6.37129169707549
6.369738052643843
6.366146933596699
6.365849526536074
6.365642176138866
6.36471241944549
6.361771592585583
6.360057993606972
6.358352416994315
6.354909344354748
6.353823273674143
6.352785120995056
6.3523914593906134
6.351283723744489
6.349248160959361
6.346194758084038
6.345799017144762
6.344251523962401
6.3413483574965595
6.338035354699797
6.337498088911428
6.337276851686141
6.336921594715585
6.335657684903875
6.33119763888895
6.33018846458806
6.329409648332728
6.328147232752191
6.32320733430279
6.320316860258878
6.318907730930718
6.317652240129629
6.315774755649983
6.314738222462067
6.31473643588852
6.311653621554959
6.310130995051104
6.310019008582652
6.309919281214396
6.3074637940407765
6.307447380130878
6.307400881419217
6.306909446406639
6.304639688047718
6.301869034529301
6.301155369011046
6.300873100742505
6.298620008490818
6.297501975013478
6.293985261640238
6.293825736772405
6.293732437255123
6.292197017173551
6.291101240202644
6.287064488956746
6.286835140863404
6.285700043206708
6.283897319661477
6.282916103298459
6.280974738359365
6.277662286631441
6.272894747857463
6.271998655226296
6.267617340950076
6.265827563230035
6.262455718757199
6.259998378327087
6.259892464917914
6.2597521008337225
6.255104323407712
6.250421235460301
6.2497622641985595
6.246884371920801
6.24642058105116
6.245979520991926
6.2423523030422
6.241578496692112
6.241506284374273
6.239080929386343
6.238282371625059
6.235877251494302
6.233030418028694
6.231390491633373
6.230158935915268
6.228373243672315
6.2278819380463295
6.226666231792115
6.225914755205009
6.2232770230538375
6.221689348135103
6.221432741167888
6.221194658087629
6.210297926753426
6.209846309611876
6.207571734716397
6.207140065361256
6.205762435388436
6.203549491669081
6.202075212498719
6.2018435823353
6.200643295535455
6.1999239722207555
6.199668599161636
6.199168505939251
6.198834612034993
6.198179300285773
6.197005416847569