# vtk DataFile Version 2.0
Unstructured grid legacy vtk file with point scalar data
ASCII

DATASET UNSTRUCTURED_GRID
POINTS 1196 double 
47.46783280549849 21.124745251552678 13.976987884944545
13.126905488413614 50.15874262189467 65.69398481559185
30.653052384518908 24.56660465849511 187.1427095780741
33.54359513154732 21.300232674559822 23.972250155985233
89.09437460522355 62.06193064627132 124.4035182768141
32.81432185487071 33.03206890047015 83.37576265845426
85.71335137367376 25.43502713435557 172.38886574760818
84.72306010734802 87.94602195903872 98.22997085253306
56.80815543550198 66.74495093650496 22.686983160447657
90.65823853317855 73.47305596520539 38.82550814228213
34.13006516463764 73.63851857678867 129.98670323533645
87.70074449675852 14.97075296670239 51.673933484588495
34.771252859006765 62.23388873256367 162.2402717403081
66.88644905763472 12.047894804704635 18.948137736996546
75.28545392283354 25.013424473105914 87.22897659313887
11.195005930970698 24.4684441455825 177.21831347511548
50.61415364791641 89.76129236195683 92.7387413791918
43.59920421623832 40.669941808532805 48.52829616058904
71.29844520022124 37.62790986376433 92.46558304492191
87.01777080480666 88.8009493198021 143.82001033708877
80.64190990220752 76.34498099640226 167.12985449025317
45.88290678174786 14.706200513544823 164.30906385773653
18.27188629618074 20.486357119730474 94.76704038591517
79.21133773699532 11.260526056189844 120.10464520634872
20.624518995648955 57.97902783592527 13.827732716517707
19.42704579407083 25.174416606783453 54.672946538214276
52.09558176227859 24.29790503820847 120.5043896926705
18.817673112113138 54.751643917750336 92.1613175843644
64.65471709472388 50.450544028707085 29.70391829814086
15.275915270060775 7.589970356816393 169.4659228538543
75.89450447430575 33.039411235224556 162.94361484331694
18.400136048861196 30.695750025120667 107.57527129863051
59.729353644697504 66.34129505152902 81.25027066667805
27.279848348315028 62.41107320209839 149.83217912134785
28.61163679161939 64.3303088592279 121.29982351208223
24.071462500929176 9.329863016953079 154.93360889474582
16.369855187992535 86.6469034949193 100.21929566627998
87.4722685285676 51.53727258545841 74.77282375078408
80.18852641148244 46.951079592333635 54.0922049190105
11.556881473715855 39.941523325966685 18.08098748945416
35.01654096497774 83.02884032437386 65.06427408571935
90.40776483501931 75.07106698156839 181.96113391244828
52.96009149229854 37.463761443507664 69.93282852232706
72.92061207011358 39.133328070219974 122.51857432319895
14.545526662066537 66.56129663909195 189.55725707933826
52.157397530668895 90.83451090233127 45.667042166614095
84.39478068186173 81.58924041948649 127.83701719142144
69.04531080170142 44.76851639368652 188.68165256048195
10.251754296423423 13.261325155491658 51.71591513850664
51.54644847673553 88.2704717913438 61.014551473263744
10.948572102754506 47.301848885943784 46.84370099358062
35.16190081005094 84.59666675974863 10.623086923193503
87.80173322976884 44.31883719826926 128.92078221934028
11.02254303891419 32.78927080047639 94.61768773456946
28.26424946249412 21.732230087829382 111.10494730512673
57.9232721502356 81.190470534912 157.59350523071413
58.242094792643584 45.285907781495865 176.3586509429975
86.02820068779155 9.740243453516449 181.37398276629403
18.50444801363038 75.77557097490735 57.42549206941497
82.06574624441319 88.97861925167022 191.33678180191535
88.68678681314405 79.40328043068061 111.74443825703271
34.8280272210159 14.493176842447289 128.63655823888288
41.367392163132585 11.745376559911442 179.99112383579376
70.64377352512943 58.952450273088594 11.235998023788552
67.19226612630527 62.1251509726083 131.72366455803848
57.7126037134355 86.06438294625997 124.69242220008073
10.398327287897486 14.681766447208034 30.48711993842838
89.27668839835918 53.82787104034952 16.916514223576456
77.18285278905933 90.61616223245652 65.22565051394184
78.62313244875605 25.60320127275856 128.1027022884566
61.934994400800036 83.15038962004485 17.16777778658014
8.202354483155485 10.706097279010644 109.31565927165245
40.09521741898114 55.87635562635097 71.42947285967493
76.2474266398807 63.35279885093635 22.715093269657665
64.40937503706776 30.217846709323553 14.815514799628033
33.342574244435426 9.674476855883789 50.006505177003284
20.02288397398709 59.83506375448196 179.0865327523162
23.487281009916916 51.17733197425121 42.78273318143167
46.195691980011446 34.454017135875816 85.9672629022649
44.75494077768528 44.68469798241388 105.05213390431568
74.1704223668871 12.446872175450501 132.86246334119147
24.272855433240288 41.0266241346315 113.86270770498069
32.54221291111767 28.657869402938353 9.623520281732938
34.84008298843092 44.28399798224311 120.82700143450535
68.15839572081016 71.91443740881714 182.7887366279098
43.04716509647618 76.76624232113937 50.72218301090723
92.2508864128559 64.82693852364551 84.30222665709935
36.04779040259315 58.598159242150416 28.473156475847922
63.13535964707984 67.8180121745707 98.64105333977335
45.857456459910644 32.554972968790445 155.90195276952497
10.022588609281158 20.962048319649174 163.18153413199877
86.6380240626924 10.04074874824519 166.34300480493752
20.381839165695048 55.452939908541836 110.31066380131284
50.2257579869113 48.95018082676049 152.0173861044545
89.62932525700054 71.1086425480274 136.87744650752626
52.236700767931914 52.436909174696225 51.64084042758509
66.42396851297002 49.07653382220075 167.05319499819208
86.6327912606491 35.04360524359567 141.54883949348613
16.37080757377362 88.34952581957698 115.23238828482934
57.37772195979807 91.35513067037614 73.08195655879659
53.78564044126375 26.67579621349327 29.586592835660127
33.18445034137785 33.30776372319758 138.84607646883276
85.29545815454027 29.29485747495489 80.55279305511361
10.234330497245086 85.48178171128787 10.69147887032501
35.19730708670439 25.30778123867659 53.54667416750993
46.17395559397134 62.76133137646374 16.354038859816697
75.20101656706254 32.16635206577104 141.29347737489218
62.679629173893254 73.52681028317994 142.6631305773849
9.12895877152671 72.88817854395782 113.18399323631763
21.071809880945153 29.79291511579251 17.492469098276178
22.38074546472736 48.396545242849875 151.62425684033994
64.54692211159873 23.74616218931274 46.35795955788114
55.07209814046479 47.94640216762038 130.27495696482313
27.932585604332914 89.9820320657856 24.488171277955
60.65006588437768 13.52394287229896 88.24924305378217
86.50559777031889 7.977936517438787 93.2157245167618
12.78702170899978 79.91454865420154 143.6872159484397
48.73095105750898 65.55209212453045 91.52922941177914
69.78795735202037 22.13532340436429 175.20981192176706
80.69836447549844 59.08917349234963 44.82039695688047
66.67183665199838 39.74603966516013 38.206425041150034
22.964958843343965 73.03159946027948 179.9810374084669
39.22397863067716 43.86170316379219 184.98304323979673
30.645938661124823 85.05617010183997 52.28958890403846
18.202509375590466 32.099135461877765 68.66937667597698
51.86673563895476 79.2925508136844 113.04585050021228
81.73853468977089 44.53483670217412 165.06476749102188
12.632024145520354 28.79783971958001 153.400195185689
87.11183996480747 21.825739076554733 12.037938755901619
75.83497267976914 21.791484630004184 10.617579040744493
71.3706259443462 76.25257914925048 106.78148233185726
78.10145037252828 59.06155433760911 192.53570509954596
56.20724087290939 9.491985390614555 168.72351119582817
15.857333064089087 46.09858454931456 135.1401406638497
27.08482886026407 83.97991042463957 118.96346100650486
49.99915124138092 47.94333064922981 9.492893286402788
52.329691777070074 35.73959435501533 125.61428080120461
44.6363817747023 29.245029482969912 170.25430089056252
44.3543654959413 89.74353563518082 131.079542102413
27.207048748971363 34.58411616031694 58.285833229788444
39.47507068479272 22.172215454331727 119.73481564557315
86.31075121364354 86.57197578067985 175.66178697584888
8.714023968189924 68.75300434174929 83.92567561135215
37.935493089405384 87.16045539935355 167.0764245023406
53.4073635392251 27.105466587920212 77.1486470417988
18.22983213883379 13.982400178703058 186.45446616039746
42.52709799463653 13.150298165898432 92.71528056453735
8.609071783120386 64.85033309714535 56.9587380273495
48.980596393708176 27.706598007384695 48.19667068178775
10.003543574114095 28.425695379385328 30.084092638064487
36.83516328751333 51.820568543256336 145.71068690713685
10.607041739029127 69.14410730762721 46.284101635365296
28.884751661533386 69.97872879815489 189.65188378340014
12.975287465038006 79.58764322924844 160.12417045485725
68.64716671709155 19.78323435835072 159.38253926065593
73.43419766256284 78.54078717200177 24.038008607247946
21.192978498401708 30.773293209572188 32.129153144917645
47.451064006566305 67.36582043815963 121.33956245260096
10.513160084244575 89.79373969618128 87.05252267683058
20.784126444281775 84.88684468502377 75.5489252559857
8.183970544058118 14.81242686017256 65.91559707499545
75.12482293480555 74.8370021627883 154.5448877403556
58.93785536298015 44.37521297562505 105.88323379767529
82.26493236966638 83.14972444894879 34.79949042658268
28.01154811600178 31.532186335886465 160.75314631946827
44.24949426732651 31.456648184875114 185.40494965236002
48.555934521629844 9.413926650972932 128.14199185918423
46.159143845570874 54.407873888817456 36.3833095089108
69.36201668401492 25.948325159859763 30.86095127685034
26.51645258036001 91.55319371912853 146.7680358973607
37.656472277746616 45.073208179931676 77.23078918062788
34.13094155575677 59.491679791775496 135.97733976301453
40.88999652234296 90.31448113069453 188.9630254290037
79.56575009272619 19.24179769720123 145.67933763387228
56.51170701175892 91.50545070311884 7.632252469743821
63.717400814361376 65.70916778982729 172.71946427441162
19.233561760401315 19.36266872305691 140.49061562257128
10.425269821096707 21.86585893168123 111.15423307878848
26.23711075275656 75.11175439736704 30.359914579363704
[...]
POINT_DATA 1196
SCALARS Diameter double
LOOKUP_TABLE default
11.993821340725853
11.979754423749625
11.963461976605666
11.949424912170269
11.925180882993063
11.920454755698499
11.888371057356965
11.881391085094682
11.865182127535379
11.85155306903615
11.833247402931686
11.832886781964113
11.823432786820135
11.797294630728786
11.791455610384155
11.753006844159833
11.72745934294366
11.727257780202129
11.727188792870537
11.724823850191726
11.684730632177466
11.675728590036515
11.661820467336385
11.614662131192524
11.607948298854318
11.575785933519446
11.574269784775717
11.57082577247887
11.519591202256734
11.503387167568523
11.490336027367004
11.48956201871881
11.48909585118992
11.480027227750181
11.460735239506429
11.45987832875009
11.447102772929696
11.443778077864994
11.438800427062072
11.433709990279905
11.40310419313343
11.394267069498396
11.388864335547442
11.37347382232779
11.356272579482749
11.344506802318456
11.302593441897347
11.29832286727676
11.286519266895628
11.281435961159069
11.257468863648556
11.237540399374025
11.231876138537725
11.225751798445415
11.223426671245036
11.17177540654974
11.166094451608071
11.163647800084188
11.163638468816588
11.156991417042324
11.13858608837852
11.123172848961728
11.048119044639456
11.043690007792625
11.041237253887738
10.999266883341692
10.976536230753975
10.96827480179992
10.953382103352606
10.941138263208359
10.91732427727004
10.90012834269504
10.868730299111123
10.829690829403821
10.811636680595115
10.782341147199746
10.773013496262873
10.751629610871909
10.747136151675939
10.741801615519673
10.741239818064352
10.714762150995883
10.711648249428189
10.706949372526022
10.693471143855117
10.690753900018167
10.687583691719398
10.643029233073372
10.641823563522866
10.636223386861872
10.633037673629628
10.631072963003549
10.628953122479942
10.620933827497982
10.617789819687786
10.576332100909973
10.57019024357318
10.565386884362834
10.536590777211792
10.50025747351304
10.498960559010605
10.481094504129173
10.468808297117931
10.43448114146328
10.409297106895671
10.385682613019473
10.38160931611639
10.370078570196739
10.36546635156153
10.360585576092708
10.334915951486378
10.305259506925244
10.298211339551877
10.274785487028826
10.26726539696564
10.267193700573147
10.261122564025722
10.259690701288948
10.257302179172742
10.250452472417873
10.248543973049278
10.20559843748266
10.186948921392073
10.180327591210865
10.175023761115584
10.160818787328703
10.158909821905128
10.147982146060095
10.143327237090228
10.138698201750275
10.110456375697684
10.10059650195274
10.099757662926972
10.094828326713756
10.093598153151733
10.089438204541823
10.078858117892995
10.077703348422322
10.072083530801184
10.07077617359571
10.059668879784713
10.057687861068658
10.046747496652262
10.044772774820725
10.044553568772777
10.03191348136292
10.028687380550693
10.022600092605025
10.007896044349572
10.006843696723951
9.988815786969592
9.974828041052206
9.937965405478222
9.930740042298495
9.912365799105132
9.896644452371472
9.889927785265526
9.88151600171661
9.852089318922534
9.849317194250855
9.848347407484578
9.841520015955583
9.839189438534497
9.824643307164466
9.81849153095872
9.80499935422819
9.799199586185502
9.795755256133095
9.789678974662182
9.768881577908713
9.752241152801567
9.744966525718135
9.7402138422328
9.730373103521755
9.720361613361424
9.71408243075637
9.706490578429737
9.701846730040383
9.696731788150572
9.685650984169792
9.682870377361263
9.681430670605776
9.676076910237814
9.666784512762424
9.651337900954804
9.640514782657768
9.6403782863912
9.634388675778052
9.633762785913275
9.633026969808766
9.628214619563021
9.608587139801378
9.587745532386064
9.570652862652096
9.559231699882718
9.555344531684351
9.543085214358733
9.53523054335907
9.50166485440776
9.49795939509395
9.497324084951277
9.495289246166239
9.492470952025327
9.484770687223914
9.472828694756231
9.456387240243375
9.45512841564138
9.417194027724634
9.413124145374386
9.411085449918968
9.394333882387684
9.391024937642278
9.387041410722976
9.382379916451294
9.381566881425396
9.362685597154247
9.3609132667779
9.359835836906097
9.357632098007036
9.349560821464397
9.327383273752286
9.320461282050623
9.319947150858535
9.303118487236802
9.254863974126414
9.254454877063084
9.246575885842784
9.245053801107783
9.24237341184682
9.240302296709691
9.237322386456812
9.236191021833378
9.22769632930844
9.22373329658674
9.22140157514439
9.21708999166496
9.216124966320928
9.204316123080678
9.193217236636302
9.187944013461182
9.181534264619879
9.174883836820866
9.174828715681512
9.166532639470988
9.151339671798858
9.147046605800641
9.145408448403309
9.144176075089211
9.141272900994483
9.139685467254791
9.12818547736458
9.126220752591648
9.120995623338766
9.118791255975651
9.118250976803717
9.104241836626596
9.09029319534988
9.087476764175722
9.086052683728596
9.080287615055543
9.055926062647158
9.039525495401309
9.034520277743335
9.027869798347494
9.024961053634895
9.015528308301517
9.010811927739008
9.006150049240235
8.996242063795076
8.993907123978778
8.993716042912663
8.980578923378488
8.97971340323378
8.977730108151718
8.973978660038354
8.96307351648342
8.94346262844974
8.941606195474641
8.93997017861889
8.938056986217292
8.93322875120081
8.925793462467936
8.921317423722895
8.919946128718912
8.917781178476186
8.905280435576632
8.901061659640018
8.89776539926843
8.896736044765444
8.896227371565626
8.885096149957127
8.880294302992429
8.874468145204855
8.856963645759462
8.856695368111271
8.85152489236183
8.851453997134817
8.839605803413928
8.839181503309991
8.829297762034036
8.827564840239209
8.82442024279615
8.823790623194673
8.816347902439192
8.809448616656042
8.807820439734876
8.8032292665813
8.800450772366151
8.797210476094778
8.787843966706566
8.787590067288257
8.780727853371262
8.776048035863862
8.764564378366694
8.762989135413466
8.752951704208689
8.751136348335905
8.747014525740422
8.744100897770595
8.740077533279669
8.726618070866687
8.719971468041592
8.71298562283951
8.712580497515948
8.711871763839744
8.706136370394805
8.70108773200328
8.69620330128818
8.689684811744971
8.676229070355836
8.672560335006386
8.667876719362624
8.666455236777724
8.66022345380614
8.658026517261167
8.648622727687334
8.641999931857768
8.641241618895267
8.638924449650247
8.638390310891234
8.63634350880627
8.634805996329508
8.632455843979535
8.606779761226129
8.60597035623604
8.603084358191689
8.592545348999149
8.58916442619423
8.58701877861378
8.56847293765047
8.557796306532262
8.546251740886413
8.54536647044055
8.542947613688806
8.538251061847873
8.518650098494641
8.515853291033132
8.514503660185131
8.508205297634218
8.5071052425493
8.502891198948255
8.49957301081521
8.481996256105635
8.46733216995349
8.459627230867587
8.455450587191823
8.451024856202952
8.44729137339737
8.442243898258639
8.433254528423634
8.427235815129162
8.427123688551374
8.421562817874666
8.421531023432143
8.400141165845737
8.393000955566874
8.3854514850471
8.382066997109895
8.381291815836203
8.381271211063762
8.381175181735074
8.379027256719112
8.373670495779825
8.366481886103157
8.356226477689583
8.356138432672028
8.339336127209188
8.338626828274878
8.329102302568472
8.315721129091687
8.310221085416167
8.309624266123322
8.30172900074894
8.296170841571971
8.28582470477923
8.275436139041812
8.272029071119592
8.25982171675069
8.239955519748147
8.237213570563952
8.236571897094409
8.234386758001827
8.230038343154046
8.2250775283104
8.222003147459503
8.219264285032128
8.21882294940755
8.21635252045254
8.208447021984052
8.205345562203917
8.196171547670579
8.195547421504802
8.190540839421764
8.184946378833029
8.184634918685937
8.179515180305994
8.172803905036604
8.164450657417637
8.162533595812992
8.161525381439693
8.15652077277231
8.154354895267954
8.148001885451995
8.143757665093059
8.141532550405062
8.127321504720513
8.119051047907597
8.113102390085805
8.105378526447783
8.103753756708162
8.089649147019891
8.08810971090439
8.085294341701996
8.063964444742203
8.05965799441913
8.05793331501965
8.056683419850787
8.054694605509642
8.053236380709366
8.05249952593179
8.046404668772734
8.042167180566633
8.03853781915243
8.036178707579515
8.03500312685742
8.027973511889826
8.025269119144467
8.023166923708036
8.003998409609228
8.003242781574485
8.00036520164766
7.998963423797914
7.994507735535526
7.992102505689325
7.9849087832646415
7.980188825285209
7.9715250334367465
7.962797427662132
7.955578943603983
7.953602339656161
7.942045984078673
7.940797961572959
7.928164239424129
7.927664676715459
7.926898921584403
7.923734834036928
7.916577560305671
7.916409720231211
7.912481235247457
7.904288251525523
7.901976347302795
7.8992689779028415
7.898158963029099
7.892830905236131
7.890377391789192
7.888942408158442
7.877154892967694
7.861370267980496
7.860276520168134
7.859405494737262
7.853786278628904
7.850699236056821
7.847277034645339
7.8406742467658415
7.839924048510174
7.837084062568863
7.834389967268086
7.83234262107716
7.831621086838142
7.8267942221345566
7.824835176954194
7.822701511926838
7.821229782081773
7.819066312690678
7.8177643561124555
7.81665197751987
7.807778675366492
7.805952130780771
7.8027083997566695
7.799670589499466
7.798375016859026
7.7981191313673355
7.794216113262848
7.781482191993653
7.774848334087599
7.765631904083349
7.759513987796762
7.759003034652078
7.749190144386985
7.747944977332757
7.7452110566458705
7.736796509973031
7.725930961126776
7.721948111337397
7.720057503007827
7.719306551363779
7.717626248311695
7.715434359886915
7.711196823217947
7.707352736644218
7.706580943254826
7.704143544548968
7.701244134278747
7.697463056884366
7.6816060358595095
7.68076130571953
7.67788400019099
7.657257269964775
7.641585439052104
7.636347448515008
7.636056747800287
7.633965681326265
7.632728771682842
7.62523966280194
7.625018889619406
7.623055732916006
7.6191733711801195
7.617421455401205
7.616036952900721
7.607333044396531
7.600237788838771
7.600047514573799
7.594924943427442
7.594679756906501
7.594086723640965
7.591501015468733
7.589611692185603
7.584411453298106
7.584089176082994
7.582868843633879
7.575199827908774
7.571434630161029
7.560798014418783
7.5597862418846
7.552644953787462
7.549165807899574
7.547634072333035
7.54358915697144
7.529677808121832
7.527833521015145
7.523945899916579
7.518600756274589
7.5148087075220165
7.510111014276291
7.509377468468708
7.50651409364386
7.503577638788599
7.500834304909481
7.500783638562049
7.497753336793734
7.4963778223971484
7.496237161604438
7.492414783004188
7.489903539009056
7.485981033954374
7.479484482265084
7.479393454849654
7.479070493781355
7.473293246957194
7.466738054843669
7.464558111278767
7.464514356042951
7.4642545657944295
7.46019088426214
7.44646071989971
7.445933003759712
7.43986281660481
7.437399417300879
7.436015371676682
7.43261453143619
7.424449462110276
7.4228235484533585
7.419574565134637
7.419240763291215
7.405718887418068
7.3872927493552485
7.384377506748995
7.378535774245407
7.377675481305585
7.36971190564832
7.362605794485379
7.360284651177022
7.358664365528748
7.3578408925010415
7.357741628267655
7.351655902505346
7.350839622883674
7.348790577925206
7.34513011002713
7.341082933671517
7.338347928115227
7.33724830281575
7.336352407506142
7.336060742067855
7.334184495352923
7.33313141646772
7.3284700938218705
7.3249911143544235
7.322502246003644
7.319309307469104
7.31737813648108
7.31438758441514
7.304312306466247
7.2997808324745685
7.2995129044188
7.297745465823718
7.297159756486124
7.293455654226831
7.293055221418377
7.29286816942156
7.292781027679447
7.2923350728818725
7.29146320983283
7.279171073646122
7.278544082274024
7.278531526821242
7.2768658571591
7.2754981568874255
7.275388716129018
7.266807605729155
7.265089199320584
7.249221382166114
7.242001207177394
7.24037220709754
7.240291556505815
7.239378201484086
7.238559328856661
7.236394590617098
7.2344489930330385
7.233689239843406
7.232580906906458
7.229065328674931
7.2199636085298495
7.21926733784251
7.213303037329846
7.212508052761073
7.211398649279769
7.205634429476625
7.2047398770097475
7.201721052373164
7.194977004856326
7.194974950007166
7.194162449999899
7.190454844709219
7.178829511913625
7.178591931151669
7.17855398935407
7.176249555937552
7.174323660490719
7.171463074231626
7.169594532793745
7.169387835639416
7.166397804734907
7.1656947267056275
7.164766396868357
7.1628406882120075
7.162782238337405
7.161673121880401
7.161547411810533
7.159910143725943
7.156890421342679
7.1508066616982235
7.145948927079445
7.142326273909178
7.140724378901261
7.139665737762117
7.138669450738238
7.138531797124765
7.137508166267051
7.134170170257296
7.128203582230067
7.12602244160958
7.125550795303811
7.125151793912394
7.120881491265534
7.120039029940207
7.112000843967427
7.110914113258954
7.1099688570479245
7.1090654487676925
7.099880427945468
7.098340261866605
7.097185912983254
7.097130578058215
7.094115740474937
7.091097555918916
7.08873374971169
7.082749149698748
7.081279955685634
7.080696000599316
7.080066867471178
7.073003107030642
7.0710249063210755
7.065036595436693
7.064102406377655
7.063686637291056
7.062152484066249
7.061114400577469
7.059307804247378
7.05896665243489
7.057000176076645
7.056359140961069
7.047767463728326
7.046946536120416
7.045551133230948
7.044038707420558
7.043213825265358
7.04010925953439
7.03474800146687
7.031080027565699
7.030905880065244
7.02706692653126
7.026267598285916
7.023859231395027
7.0230116043882855
7.019841408674823
7.019516284366723
7.018206604807498
7.017437764792502
7.015888250793795
7.014371865393628
7.011851440480969
7.008733731185104
7.006428645417406
6.99798501232258
6.988423338299381
6.986759489445018
6.986162734188267
6.983436942373371
6.979840397865149
6.975438912624998
6.970575067482412
6.962302771638878
6.961469016019059
6.958687844888859
6.95843137669179
6.955312306650559
6.95527243984297
6.953556398420425
6.949851079125121
6.948409390075078
6.946906668380182
6.946136868464895
6.941138064666154
6.939928834272457
6.936622486364316
6.932759597443249
6.930047908988593
6.925673792642115
6.92483790006923
6.923503154635563
6.916588551970124
6.911804633190908
6.903055328887385
6.8971349157831385
6.895461053284061
6.895142561019106
6.894898835494056
6.892032449652214
6.885674229787742
6.880539656495625
6.879997687014509
6.878982639764871
6.8781841340916525
6.876695835290681
6.875892319183376
6.873949712715474
6.8701248406771604
6.868896630420272
6.867992836476101
6.8675494151117675
6.862640273213431
6.860058226290049
6.858427075779538
6.856008516188636
6.853402487635945
6.8530193777647215
6.852819008627794
6.851412437221483
6.849316798540101
6.848425241439507
6.846443378329319
6.838345824191942
6.836552174558072
6.8353351133004745
6.830260543412044
6.823513971461793
6.820911837840345
6.82036871610136
6.812714857950869
6.808903027905718
6.804538905082353
6.80228003634936
6.802047961485377
6.799368218442758
6.7952543001915195
6.794896022526789
6.79204760487216
6.791754751928076
6.7917090254386006
6.786821814059852
6.7825048627378175
6.781506842781816
6.779433429319512
6.776337406062508
6.774950506448829
6.772579222064898
6.771704400689728
6.7703055884347325
6.769392921785771
6.769255100068209
6.769237205677248
6.763732746304926
6.761497682954624
6.7596515487337046
6.758434806474438
6.753205948210434
6.7527364232095595
6.750518473071075
6.748591743605424
6.7481619676044815
6.745760761573564
6.74398092487629
6.743594644269445
6.741263678276085
6.738743043288492
6.73658907551069
6.733707707035418
6.733624187906056
6.733207001352296
6.732121732138381
6.7317337203759795
6.72887548343422
6.7275298051099455
6.72618220164312
6.724967325554278
6.72185820326688
6.715756324556687
6.7156786971540745
6.715174194499994
6.708760526906139
6.707380728066637
6.701890505479595
6.690634741875449
6.690423378878285
6.689344665134833
6.688441414679499
6.6828800206406145
6.682039117359821
6.681159188181334
6.678922934847608
6.678571781013064
6.672307988401425
6.669833851620085
6.666809467978297
6.662616303044114
6.660161543280283
6.658018664785325
6.6492462429876245
6.649127948674639
6.649039544132526
6.647866684278029
6.645953886300969
6.645619449877587
6.643846332596368
6.6413809277301254
6.638357689409925
6.636886621839286
6.633972351224184
6.628626815424056
6.626813119629391
6.61712263530822
6.615266179321603
6.610317741550389
6.610192496754227
6.60841661769528
6.605585981814475
6.604619727365884
6.604092042634237
6.603303180900786
6.602253516146393
6.588794598628981
6.583706505601293
6.582813095546056
6.577796571098446
6.573397649198933
6.573253521049786
6.572464601901613
6.570626247307283
6.565627420271582
6.56455076662979
6.563343871774467
6.558727374017681
6.553068946921918
6.5494000899467455
6.54696872480005
6.5453941381420995
6.544803739408392
6.54438133984757
6.542915697278705
6.541056486005795
6.536795227408139
6.535003416211776
6.531833905268413
6.530126343866717
6.5278582728523595
6.5270609452796835
6.525390309454663
6.521532541865992
6.517051141677065
6.513805645071866
6.512614438151905
6.510490254469232
6.507741075544162
6.503353103801887
6.502642895516767
6.499002827731363
6.49633296715559
6.495808896087616
6.495664810567991
6.493846279594442
6.492424186465805
6.4890611352643095
6.484820778105725
6.481322023829241
6.47532880603299
6.471678698248105
6.469492860470391
6.468660062077456
6.467764805058595
6.462368367322009
6.460385367550025
6.45579086636997
6.454463937702691
6.453550875373665
6.452660081823256
6.451572210197805
6.449311574909657
6.447570616907708
6.447450346228533
6.445211621775717
6.442189884383927
6.441944220878763
6.437336889941848
6.436894367778558
6.436026914332572
6.435224647028793
6.434743849767868
6.43126652930143
6.427837191362979
6.4262564492503325
6.4237349562537265
6.423529453921857
6.423201338425604
6.422067162879547
6.420826479971201
6.419983072706144
6.418483123878785
6.413667636605595
6.413618145098864
6.4069875543327335
6.405409814760025
6.404569226243491
6.398606217918756
6.3963137433629615
6.3950526199107065
6.391713036543053
6.389070661234541
6.384079816153632
6.382149256105119
6.377774249609359
6.37000097974583
6.369537816933899
6.368946383279033
6.365215451551774
6.363830007232016
6.363052556928296
6.362511055365568
6.360402824479181
6.359907925353309
6.3558798208841285
6.353350087182488
6.353339941055145
6.352768695660096
6.351171791053433
6.349101527125958
6.3490936434824485
6.348825222928409
6.347819940068883
6.345745360762342
6.34240251746505
6.340178966659078
6.339584289250826
6.337592445883923
6.335780392963764
6.335702133796712
6.3328186354522895
6.331834588514748
6.330709968690002
6.330429806573539
6.329293743777387
6.327662203985634
6.322638352934807
6.322577400519307
6.321721775353428
6.318962518328504
6.315975534215705
6.310662740303115
6.3082017533568004
6.306049944339265
6.305827011728676
6.304021599503823
6.3017059893547716
6.301110588792803
6.2980985304037755
6.296845049937457
6.293235559803032
6.293175103296592
6.290308462410452
6.287757737121101
6.286159867734204
6.277173915191826
6.274319226672105
6.272880685231254
6.270964115725758
6.270569912748872
6.268379121493228
6.266258346516372
6.259591440301708
6.2590767342985405
6.250265827597454
6.247234427096805
6.245209539380932
6.24411762916731
6.24236066664114
6.2407758904774635
6.238727714389588
6.2319981341183475
6.231224308816921
6.23045693071537
6.228698849104509
6.226728664318544
6.2265373638321755
6.226406995646429
6.22571852881336
6.219945527362677
6.217474678626981
6.215003327087274
6.214449171422417
6.213208405077644
6.212819368046604
6.212748312567703
6.212533962038606
6.2111242479963735
6.209648925159112
6.209159281581303
6.2047527927547055
6.20182473244097
6.1995990658552635
6.198569714656298
6.19620609261318
6.196147722074766
6.195473954984649
6.195209531288785
6.192738848581225
6.191992663077297
6.19183136909147
6.1897777187528416
6.1892617507243415
6.188131120193688
6.184860637416707
6.183831345597218
6.18107497535515
6.179474762085343
6.1781466840369035
6.177962476440433
6.177566132388698
6.1768507602509874
6.175487911382943
6.17197435641909
6.171216210224845
6.171121205127632
6.170583677526741