# vtk DataFile Version 2.0
Unstructured grid legacy vtk file with point scalar data
ASCII

DATASET UNSTRUCTURED_GRID
POINTS 1406 double 
57.66465483926322 15.964384739113386 127.98183883328394
46.399923026701664 90.10838392821529 129.47522402842654
86.58730970439849 15.529747300817704 190.99834319893102
16.017081417345633 50.206364545390024 64.5103622376939
11.308704918312529 38.07751304772767 24.76607245126606
79.67508421934897 90.60270144925994 167.94753892733797
46.894531129619054 10.36049539193036 138.1786740664482
22.685869314807977 8.776830126031797 120.22683796276115
40.41918591012251 54.603938976882915 128.61416437210602
27.709503993357327 83.2592580257287 91.12304166049749
14.032763697942093 89.09679148000876 177.3038798512559
90.31743452881435 13.395208534673653 162.71861841816406
11.418546845442691 50.72003898626494 95.24046150993004
43.23377877728038 81.71988253802154 157.92822956990076
32.71183050432635 38.065879990278496 133.40335930961197
31.14550852239499 28.29438150919696 186.20608461892346
83.8420754036683 38.30216253729219 111.80689421068658
33.96853141310077 86.56304045444223 127.45376125698012
67.89206788593415 69.34974036351241 75.6011067096133
27.862713250617276 16.225140060249032 41.39961523941294
82.74911945829979 65.55219249144287 97.20463554315923
37.442657417006664 81.7115287982213 100.53066615184304
8.72260833660437 63.89817974027322 26.878306043485725
67.51060813272056 49.70703613646381 135.63430164450617
64.43842436433883 57.7649708058983 160.90850831711433
19.93204428482968 69.16516202127278 135.70743621894027
8.441055537709293 80.2051362811385 44.72829912285418
48.46919096492587 33.45754224027512 185.1116723143447
40.38319343576023 46.851923556812885 190.927203596927
11.933009979440236 27.048839887683997 112.83376110302788
86.23349861584505 20.979625011279154 13.589886575712635
64.86037559607017 33.52961585467401 117.18543886786313
47.25012272649453 31.814430700516198 126.22686438271361
26.398854850202593 38.6226353443416 25.13329635735166
46.381209818003875 13.016797047792254 169.9746721825107
9.106507049440319 62.75619800422038 80.10959141376095
20.250875991079553 43.58197425492281 142.85845324927394
85.81747303237893 79.75700895111125 138.7429637950748
62.206644559207746 61.80801488531256 43.92179202276874
75.5790557018638 39.48329721976164 68.83321092996351
24.168407397857692 38.6558470229882 54.3937550650143
60.45314366286728 83.54070796549915 139.97906161340455
28.210079250129464 41.02339903518794 155.7458891518224
38.8873914436843 72.54772870969194 130.10774631903445
60.64518210546694 17.543461143915927 88.216866568826
14.879911334251236 35.09123827631769 155.7150602109749
35.75350898127813 33.45007840722214 120.01114432880028
52.11870664434326 67.73638482699131 149.57783197887585
27.12773299167434 86.02691028151453 76.19462778502177
35.16851397507901 53.75819727465204 167.949303041002
41.27018790528499 32.88048378552569 148.14035712722395
48.02889538151311 21.59968619104965 145.45382828314948
82.56846139213927 29.64021480985685 150.86397950348845
30.158836082674608 53.275459150767965 140.7340458763614
66.0556719704175 13.671865759140873 184.55105862777796
71.15582830384076 88.4442085214485 96.03518009033236
76.35883435664651 89.93841014513704 84.18477979184003
59.039350040614856 90.93333061015394 126.30165194738497
12.843601319760971 11.635436553199115 130.52207517960161
9.000052114669504 37.7526571925989 181.2236592045374
63.37163133822134 81.61958710164394 118.59198066736519
28.524483640583433 28.38025845351004 106.0542477063459
61.320182957366065 46.39375766892648 22.433036378010325
10.313237777767872 48.370012809468406 117.93153068102409
30.151997349536273 47.98218965060925 44.600125490160494
33.35297003480085 16.219968772050116 11.886986520568945
36.23394923221372 71.4777793141231 114.94444347326743
72.33692338840204 12.566595709400282 115.81875599765034
67.16877296466618 20.613408132815884 155.36369180116947
15.537415768813455 74.92600982497483 151.76390063784373
86.98933353410057 39.26521651334448 176.5298181795449
59.2626387117518 10.563208215216354 115.49337120542253
7.506618330625275 28.931181113329735 43.46046788187153
14.694047525264656 16.132671811072946 80.33680236640981
22.178644793195375 11.763568857400957 69.74172326576556
74.5140662210793 17.0935210300772 171.32965804052003
83.11159399340245 81.88050750837292 99.35149795077787
8.126660960946943 84.14950853206048 10.639169839670316
29.22127620127423 47.98286598264852 115.79559448163536
9.325865167067702 54.51673649762256 132.60431930680312
78.23352973682768 45.42535451530655 121.4294807269084
17.586031720309908 12.007353449202931 51.11425787930139
85.11831746904721 57.79595018428765 13.767353296019198
25.20588065207686 71.43044897787304 106.74307768917745
83.25230971702021 42.233354570735955 93.80392676388414
62.74408768898505 64.43164106491253 190.55196858948537
35.80498090929249 57.049025886068826 153.73238548369295
15.306250140491535 58.08457668952496 51.681620105855615
25.49324823172489 20.78828889643825 126.71980185232556
15.15506758353871 61.28209120328114 150.23102572277256
27.705943531220466 85.75074718384076 188.77725260440005
14.687744673762865 84.59489882807405 30.596382109632373
52.753959388265436 50.693975615712645 129.98771827050632
45.27877613555242 64.30315100315948 164.91052387785183
63.559122599828285 11.177982731299268 163.31221746228948
82.68782844971858 43.708311122243494 136.07302244353951
39.49944476388101 13.628476825518295 191.44773474800135
9.264462819437409 9.935612586917022 24.012381117369294
16.56713437523547 22.399059813188433 138.83276686018883
23.53458598296806 85.84766622497258 155.02024584310954
83.22847365725679 48.170058016997835 59.7520366098462
89.53285721058674 81.23467758930992 8.495931516107616
91.20305517478364 38.83863155510954 15.989097574060713
79.84592794901752 65.37603572841154 131.3932214778944
72.4732921711978 19.838697677118482 128.51001125082132
63.110731804417206 82.80152917800015 173.515333630766
63.79668422616296 68.97936398032034 154.98277854893692
29.318834004962795 86.52065916972515 140.54330792557286
9.685236989480066 74.24549921765968 111.76737311589096
76.26578867220712 85.27939937570463 69.27464334805296
89.79943089033577 31.397981721876132 54.78707188111674
20.769961632992448 12.849873615382752 10.741117395050695
76.52910882018384 21.40812967456543 102.98810828249539
92.23014920137251 8.98599055634149 34.091053047258995
8.93604347512914 59.203279497255394 177.08396291953622
20.666361857631372 83.80501561416295 118.0154757375557
34.82753324850168 87.86963572826 26.280621115677864
9.368605977613592 27.730142609702767 126.15610959764551
50.86657128942965 74.23362023891256 125.62864609073723
53.02246107392173 52.29884000067186 112.81552149839672
8.315410080311079 92.52340213670746 165.72596912690787
18.948962480006113 91.63822740286231 56.10379778388414
19.255392809613994 31.92981099186515 76.96918009241534
28.24432806341685 58.67595933917545 106.89286532016277
61.64229447996544 45.73629419357821 39.79944313861479
29.346847516672415 45.87934180155632 89.66102220799809
17.644433896720983 51.40465555111579 78.33617027402985
83.88475707138039 71.09860048451361 168.97547570989406
22.47316386262159 39.86261497555172 178.85489929626374
92.25576905901112 88.86667099734359 17.83887547053408
12.534622737155908 61.29603052457279 115.60082471364105
90.06365387722278 54.64745569585812 176.2633685427168
33.34443598157362 30.982493636999195 63.68098995390998
62.86263449031046 22.57680986151924 29.010705546916387
9.082059054027573 22.060308458218625 167.6306914025204
29.45292668704441 85.12547461899426 11.606840086259492
69.49974321580443 37.50648672719737 183.12538486086572
23.25715428823643 81.39811357359595 60.89268218139741
40.63917917968006 55.110589183831976 93.01475408579353
89.11941649415382 82.75955111182205 82.03273441779453
67.70302372870644 77.18689136848492 187.41441243590424
34.34429238237125 67.29109115301819 49.213871107780434
8.393189319506394 84.77749237597324 125.82796391248665
91.5267778350094 80.82731023197168 113.42924700573836
72.74262104768115 80.45709223553172 17.94531908764134
24.450098235706065 10.540641482119707 100.8404337285259
78.06541994866113 87.62970564447116 131.84501974249466
85.50302121117878 65.29589800427154 35.8019817893347
79.69477954229119 11.448056522535369 142.95507904009543
92.28502027284283 74.48820791268878 71.72235907939184
9.17991751806628 9.870610593157892 177.17520893239632
68.0510618695649 31.510240957810666 35.07175968337499
8.62348697722191 91.79276614796338 72.3038560418199
32.62041350189349 10.823215755714406 162.47166236074264
64.82593403176871 59.18453758200557 108.60769838053787
32.33442437377634 53.421876609605846 11.571990398699489
35.98678489659473 60.101136610318214 36.97866431812664
19.751249566465113 74.2613072373082 46.92321586403982
20.891060977366884 62.033062356213016 189.22109438823702
71.27582257485751 21.59070047066801 139.988133750633
60.652630271639346 83.50682823819226 90.89555798703944
60.572103936604364 38.5704377868852 52.28911468979909
56.45472746559087 90.37996772629559 151.0155731447491
61.41458309047335 23.413993455065118 13.672067583174314
30.09321165651914 89.9201949518475 42.14558985745912
40.40953967745321 42.51828572240609 51.3778383893044
80.39861038149581 17.65069066666298 43.44932279787852
93.34281410451376 6.864401372117401 105.6053040696996
36.393514087138755 11.267684579130483 55.532043392113415
17.72524951937583 26.297492060628272 66.35043044797744
30.285826081248057 62.48624635261767 19.553360473664416
37.57567255590811 77.70148178655263 76.51142579022911
16.431233279779242 91.5672957737444 42.99120151334823
62.35346937325084 7.426887918686458 29.660710441344413
19.912937294611883 9.873679983419022 142.35280781070063
23.637512730597344 65.31162724756066 91.20029215984785
[...]
POINT_DATA 1406
SCALARS Diameter double
LOOKUP_TABLE default
11.987941565229946
11.984741083728204
11.97737179384266
11.976581609061487
11.969970335523623
11.951898343306286
11.920336085827744
11.898659080177163
11.896971421544345
11.872044770296473
11.841399480455241
11.832744468534754
11.783189152916096
11.768960991151445
11.75147227168318
11.723874397160342
11.702083633611416
11.699953944233274
11.698164213889214
11.695693230585137
11.694206273623934
11.687813038100224
11.66351669101732
11.644006440249107
11.640265654715584
11.639615032517415
11.636592920921125
11.626066113303935
11.612092500912244
11.597795315429641
11.595869580482912
11.580840725808338
11.57875605189391
11.529664086364594
11.520987832129435
11.519615330168742
11.50834141539511
11.496480743661646
11.474446029971348
11.473557142728783
11.459568462350415
11.45191799678783
11.432049717462732
11.420027628371235
11.403151824138424
11.38703622886356
11.38428178660042
11.381813226629811
11.359704207898986
11.350849473891271
11.344624565097519
11.338147026437076
11.336089483420357
11.288709425776679
11.282694772048995
11.28172052495038
11.275526109484833
11.268565602434892
11.252657110831608
11.250388052071436
11.23538929526502
11.18537086315655
11.18323283107774
11.182027922066382
11.176323898858723
11.17109230853167
11.167982177136075
11.160922842748965
11.153161659363708
11.152460470454418
11.136234743790743
11.133505653493337
11.111074576403546
11.096850234082137
11.08305730338423
11.07423737904955
11.069599199299569
11.045513283755763
11.033373894739547
11.003316710742425
11.001297084256578
10.982312683324766
10.954429983547318
10.948302084650813
10.942746706421737
10.935803974221642
10.93295072998367
10.93246538662075
10.90813090873215
10.904900471982096
10.896078145703742
10.88803174841974
10.88011738432324
10.86139784228305
10.855965687621131
10.85574410973748
10.850504605764852
10.84503093790031
10.834974385137368
10.823942089622626
10.822445172132785
10.820075826878409
10.772533952429068
10.769973266797972
10.76239292776534
10.755591249377748
10.753096260879985
10.743109827782227
10.731874593720207
10.728323458009383
10.724325933199417
10.703657143880072
10.668071603929375
10.66656735150634
10.659778602881952
10.650356277070577
10.641451858500057
10.628791579553841
10.624153311828556
10.603155263133932
10.600248863485067
10.589002921467877
10.58785485260631
10.586381771991949
10.569208458072922
10.537853149825033
10.530750328433122
10.524525711951753
10.512821421743164
10.504871468367286
10.471344503264492
10.469834723931466
10.467346320489865
10.454605658524224
10.453951846772798
10.443801897009564
10.3864860647924
10.362766946883557
10.337337949320418
10.309967097472839
10.309172103829653
10.293800079623308
10.293408373474158
10.291188344160233
10.267549095613006
10.253085285487918
10.247213288458646
10.243184197010944
10.222606949725677
10.218065115978584
10.211619235156771
10.206721555335054
10.202725912538254
10.196378954597707
10.171949187385447
10.15901383181815
10.154568490193917
10.152343323770209
10.147970242192235
10.147285606943898
10.108138203044607
10.095559575224538
10.09427939853754
10.091669141940082
10.075132091311467
10.06836193261774
10.05657906469203
10.051036412361672
10.046729812930721
10.046718936164526
10.035460791926651
10.03368007438453
10.0311552236754
10.025893228184056
10.022874952348864
10.009575051609648
9.99038062105277
9.976740341469311
9.973577643399535
9.973414747541266
9.972719877241552
9.956466151444639
9.942865435665368
9.93491773291627
9.933075554605338
9.931943642146564
9.92919122648467
9.918831805917515
9.91455087469564
9.897635845705793
9.875007164474871
9.86625356139539
9.862635106272288
9.861102531150035
9.85396936385709
9.835578741980584
9.821875567670348
9.82181099876495
9.82009511994716
9.80942449223995
9.805129231961645
9.79816322635023
9.788694186484651
9.788559102949169
9.787503065332734
9.786382578402842
9.78452107971048
9.776630337983915
9.775617539954172
9.77204645349473
9.759644567820974
9.756729153582212
9.752751457305337
9.747082428422155
9.743349829706974
9.742638547021595
9.729698415467979
9.717970709625309
9.70383429767259
9.694683543411657
9.689703285985756
9.687494525347534
9.6823606488867
9.678911331106399
9.676846039350448
9.66858047503521
9.639326956436715
9.636450503776604
9.621468385303768
9.590177786199025
9.587547000986461
9.584539828102958
9.582100011950367
9.57891556127788
9.55884452809158
9.542823466167484
9.539032045591046
9.534344788762354
9.53001360363111
9.525532731695042
9.51763089292277
9.497684932691774
9.48960108337794
9.480596086049347
9.47173152531101
9.4689494128331
9.463982112690214
9.460789528127911
9.449608708620337
9.449419347214214
9.448970537905131
9.447263685943724
9.439704951129151
9.430855584077426
9.40905016643408
9.408687092598369
9.393322867693229
9.39238652360504
9.38637153510934
9.38231444085191
9.376840643870722
9.375677461822223
9.37538852656173
9.368790676966178
9.367186518438587
9.364014736439387
9.348370059997457
9.348154095336533
9.347530967820651
9.34331939621034
9.338249184101343
9.327679413429188
9.311971158835199
9.29774365820353
9.29423856495747
9.291570035551919
9.277395686661684
9.273086516412697
9.268841841852623
9.265361415935967
9.239623347397588
9.238033155099792
9.236908667879863
9.235406264129697
9.228146560540145
9.227892198923342
9.227174607302553
9.222408321905323
9.18138601450854
9.170450715258074
9.169753213613195
9.15794911408264
9.147124439561367
9.141671634711207
9.139770373935987
9.137131250512478
9.124407361319212
9.114661709617014
9.112567964046775
9.112003651708282
9.111535039317221
9.108395147578086
9.107576111407814
9.107103050185229
9.106484717083084
9.105523860122883
9.104910471127805
9.100040536242247
9.096872971633548
9.095559660470673
9.085962315898424
9.08453003344437
9.075621612123346
9.065771798991685
9.058061128620453
9.053712194155748
9.050303720013368
9.038326246637023
9.032308804816234
9.025695657024073
9.024901764585291
8.997784610264047
8.988932412761388
8.988357798092231
8.986959438608537
8.974829524571819
8.970022062603935
8.967479464493808
8.95296708417118
8.951844097130984
8.948136040440158
8.943231611995033
8.942075966212377
8.929332631872139
8.926970365365648
8.926313089475489
8.916600035809259
8.915259974402336
8.903397282741501
8.8930600519896
8.890224639328098
8.889380198533514
8.889212920540198
8.87899900234676
8.878246837367199
8.876595773870692
8.869097648056322
8.863337455019925
8.86022418476259
8.856062986373985
8.854354471248685
8.851913577373658
8.842648586885701
8.833951662801141
8.832478949611694
8.82893271729833
8.817163502458902
8.797750690075961
8.794859376084265
8.789958029346527
8.788108465986486
8.77879092403568
8.777519745597118
8.753598762600785
8.746718311070246
8.742926140631461
8.724861619939654
8.72190099878303
8.721588788534138
8.717155961435331
8.70736261371767
8.706979864797201
8.704670821018741
8.692078963964441
8.69197654955817
8.683706354239643
8.681216192944525
8.67802834141689
8.676072231268943
8.668833671719229
8.66667891341308
8.658043666817376
8.657847170262691
8.6548656395987
8.647259143810047
8.644686664477543
8.631623654820244
8.629083853557074
8.628117074267049
8.612852433634785
8.6110551708167
8.609646059389087
8.607838420284379
8.60751658650123
8.605888889813098
8.598840283715607
8.596635021374201
8.592133201886577
8.5887162182154
8.570975874924732
8.56606579694041
8.564772123110927
8.56065271586537
8.551508687981713
8.525959114196423
8.517272309323001
8.51662395022833
8.515154598776638
8.513530647234665
8.51189061339094
8.509860001378536
8.507929335988475
8.505645855341097
8.501914261856763
8.48361484657429
8.4795195008699
8.471570904662016
8.468282951864621
8.466226674485222
8.462266326151035
8.461440048801592
8.45805261014453
8.454187812504456
8.447741268657289
8.445485338118816
8.440656192549257
8.439664750487262
8.438322260678335
8.433727313509628
8.430317910714063
8.430195192681504
8.42838770623319
8.42111829857837
8.419969095357725
8.416240852034191
8.41614551944516
8.41467722104579
8.414612516678984
8.408044494701743
8.399245707674813
8.393619740462846
8.392730650664674
8.384989083969701
8.3783772705016
8.36909718315652
8.367395838263358
8.354340454315693
8.350798608182368
8.350787230500362
8.335081637134792
8.329969286177532
8.323675421446652
8.316921737175836
8.313009584470775
8.301057157402068
8.299683410141695
8.297812365414082
8.29710400569824
8.290171802419085
8.285914212729756
8.282887449433375
8.278194066698035
8.272168833386111
8.270093765549225
8.259019248324051
8.258502653662653
8.25236725634276
8.246227809901082
8.241669960835171
8.23384154720714
8.224597297195036
8.219891067125614
8.219416672695655
8.216270330215153
8.215589645803329
8.215180303998604
8.204794132661682
8.201790181378687
8.200215074420893
8.19941399128913
8.19619320678244
8.195704526624949
8.19378476742462
8.191517236710954
8.180831650617852
8.180128137802456
8.176199383753623
8.17081364895102
8.168506560507089
8.165410293116995
8.163283190606169
8.155745568425802
8.14964835011392
8.145247994980716
8.132298921422802
8.110803303794519
8.107720037228384
8.097558730281591
8.088670309823087
8.088423190549564
8.077290661513118
8.075619896614118
8.075494537069737
8.074985605462652
8.07187573800167
8.066136151987775
8.056089917464037
8.052590289975104
8.051107509261884
8.04809968244175
8.046002402850325
8.039747461299003
8.03970522899327
8.033103866311594
8.029911773942171
8.023622219155845
8.0164069929695
8.013437967956378
8.010359543364086
8.008751869888123
8.008693327989201
8.002294965020141
7.995166765058533
7.994389825325436
7.993653741140153
7.99313063559933
7.9887222578956045
7.984934106662641
7.981808957440094
7.980386774881024
7.969819254294879
7.968083018555857
7.956562955443204
7.955104317273248
7.951661927348789
7.9486655841207
7.945640780579598
7.937745566509467
7.932216012197848
7.931684026527055
7.9254086379575295
7.920620460115629
7.913822801023565
7.909686132882413
7.908599017836821
7.902723602311316
7.898160101284873
7.896277996919854
7.892674881162199
7.891889809571147
7.890252371556873
7.884491793187153
7.874353815786993
7.867699043820795
7.8607967671006165
7.850136131551674
7.8491185859347015
7.849034042423267
7.841516794601127
7.83924492319634
7.835065702971725
7.827602852994514
7.82743557429245
7.819859525154164
7.817097105381082
7.815013282689849
7.8114209970587005
7.8043103823564515
7.802561596960199
7.802076273975327
7.799288385230379
7.784802608097703
7.783181173378807
7.783012537145616
7.781731695909104
7.781687706080908
7.780357405446411
7.779355726632601
7.77647373107075
7.773325746222646
7.770954815882409
7.766902142775658
7.764288952858156
7.761262031003425
7.760466131538017
7.755117827142891
7.754573805387324
7.7525500140512165
7.748407204775905
7.744654761274253
7.743155325420304
7.741063816895123
7.739060013161808
7.73863954598107
7.7345553188555165
7.73083936596263
7.724302250287171
7.719714316337404
7.7091694094503955
7.7078732155767185
7.702911413682523
7.694405666640465
7.693573521947252
7.68829913436419
7.671621579610422
7.667729708258873
7.663870344558459
7.660798654637476
7.65038876249298
7.649097537039982
7.647412199473797
7.640981463881026
7.638653493596181
7.635609287950087
7.630988172509031
7.629409379790579
7.627026233894377
7.623122372058618
7.6197162369209295
7.61545758084041
7.613196590682578
7.612306920269294
7.608063986382003
7.601366551416311
7.600240432628007
7.597855815563518
7.596745577316852
7.5965156471428426
7.573474293752307
7.573178806151894
7.565991334549466
7.563665183261085
7.55991279266094
7.552844388746383
7.549662224734061
7.548708052583779
7.542991230086436
7.542461544758231
7.536622235194416
7.520247650382138
7.517399376772174
7.513932321627395
7.5106561191500045
7.5076713658360905
7.501497561851186
7.490131038798095
7.489869590137385
7.486398905982112
7.485640619024372
7.482288747998228
7.479259354619446
7.4725068262499015
7.471318105320451
7.468636443878278
7.454066145032342
7.4461531074281115
7.445076151045274
7.442608742872212
7.442573775261933
7.442413864587593
7.439292427468784
7.436291748576366
7.435261262306415
7.434338231265733
7.431062381973239
7.430360785501323
7.429336966589128
7.424951027451906
7.422483272966881
7.422201011580697
7.413158188665588
7.4128477691225925
7.412608866266751
7.411276833270046
7.408008327108853
7.407818225533466
7.406008079793731
7.403406554020744
7.402940328027566
7.401128051234316
7.398054822499395
7.396951209744185
7.3966321295610165
7.39152973236304
7.391205054632817
7.3868369327112156
7.382216635229904
7.38030878487278
7.377822890406206
7.3776746299560285
7.37757105168836
7.3761183295621695
7.37217121089283
7.371828847098817
7.371062994192734
7.369376867993924
7.3689914917472645
7.365792609482753
7.365721737371953
7.365594797196997
7.363792050439152
7.363180838502609
7.362092264188911
7.359365884906346
7.356283153368871
7.353364161032145
7.351269890206414
7.350921875306098
7.35045423974707
7.350352995240324
7.349479577488564
7.343470434547008
7.3413755135311884
7.337849768619157
7.336845927952876
7.331613480617449
7.3310707478325945
7.32900088425692
7.328163945251482
7.327513111995618
7.325099181848907
7.323071128156252
7.322649710622821
7.31869850885864
7.317191532912176
7.314823515432912
7.313254907042376
7.312588738302141
7.312083179292155
7.308796354745375
7.307902363223784
7.306308080569099
7.304449652653087
7.304219962632327
7.302598186098669
7.301823903609325
7.298877802060776
7.298471275907817
7.298434825245074
7.293105053080563
7.292949770105805
7.2914885648011305
7.287654588584559
7.28756232837506
7.286566358842664
7.286292280483818
7.286219257160218
7.2809104467004
7.279077953871554
7.277022705584631
7.276732904224686
7.275354469984572
7.273682999502768
7.269621091049176
7.265528738056487
7.265459658490222
7.262669013653846
7.2582962333812375
7.2557065141649755
7.255524595739004
7.253682086051914
7.2519166161859605
7.2414025311930175
7.240909369243905
7.239188942337847
7.238464074080296
7.236324217538526
7.235410361522265
7.2265600290192005
7.215999566842788
7.215199053147859
7.2144386091913075
7.214003644601532
7.211469990983177
7.21060796744209
7.209689769242197
7.209604581257856
7.209239040496225
7.1979707713468555
7.196686391358975
7.196312460581485
7.194271253783093
7.18347941776142
7.182678846407963
7.172141447083153
7.171874406656063
7.170102940100453
7.169336249439639
7.156750949011801
7.146536042135077
7.141582793198496
7.140129403604045
7.137338332093473
7.132209433798358
7.128675831861653
7.128378934608003
7.124961020800715
7.123396134722822
7.119562743253214
7.116161200635641
7.1152873830152075
7.106980808294965
7.106744114219677
7.104006535608767
7.098775421605529
7.098637293838351
7.098426508214548
7.097715946547526
7.093603668353165
7.0920957670743885
7.085308533685738
7.084601373697463
7.083065436055486
7.08206411909709
7.079029440586089
7.075451461414295
7.074715567095067
7.073615789387336
7.073526715354514
7.073088181354829
7.070005878844515
7.066859741435316
7.0662589182051105
7.06613916435238
7.064777417247699
7.064251929043326
7.06130851944798
7.0609079988703884
7.059797202178718
7.059668600025118
7.0585237839928165
7.048152669656957
7.045929189685996
7.045263341262489
7.035465707195248
7.03419348316833
7.032535734127706
7.031186522535123
7.019009021401734
7.017942444212211
7.0146862787828415
7.010942838374472
7.0106327444031455
7.0037712127433975
7.003144008587988
7.002939272327454
6.99862255879691
6.992747951160666
6.992293079838431
6.983397159517988
6.978177492582098
6.976698922963658
6.974397653627893
6.973059085113829
6.970497389954746
6.969609398144966
6.961044670771223
6.958408223640088
6.958321278156333
6.957788884454769
6.955274427103759
6.954315372812525
6.953980768505751
6.952659560410366
6.948800659417369
6.947521553231619
6.944396518871151
6.939274081641014
6.938524350675236
6.937433770532056
6.937211455381357
6.935607834899096
6.933381702697559
6.9304442604623695
6.929318422724551
6.9280487021853805
6.925828786453374
6.923850283992742
6.920121552870556
6.919383906582997
6.919289199775401
6.917953644949449
6.917341973423946
6.910293490312076
6.909724828707727
6.90834947938933
6.9002568944640075
6.900023310228887
6.899499941114537
6.899158536025714
6.896102346440593
6.8960273534907
6.892931531144418
6.887403943023414
6.884591908567648
6.883467081331158
6.883089880578329
6.882041793810517
6.880204545636185
6.879599969428214
6.879308353228421
6.878650856872993
6.877182760915291
6.868703530283186
6.8621770277129865
6.8598641241424065
6.859310449481763
6.858945185635433
6.857074160344977
6.856763513318377
6.8558487076095815
6.853119958146558
6.845514223490714
6.844494964921961
6.844003362913153
6.8412008515045395
6.840430394352202
6.840195986965457
6.839992035912799
6.839216953503696
6.838358764861585
6.837062912526843
6.83672788012669
6.83582814262725
6.831936279194761
6.829268203092072
6.822742382101476
6.819899778594535
6.819229009922985
6.814006276555022
6.812374442068641
6.8117189681957
6.809867430793654
6.808566721007706
6.807354338737962
6.802845924672723
6.800601657475299
6.79598407741293
6.795246554918728
6.791890382955891
6.783106159654162
6.780403710040543
6.7793137148892395
6.777274844513071
6.768565591754589
6.76825677842578
6.768241941908101
6.76582688348103
6.760068167110562
6.759433056041582
6.75911649387027
6.757684219189548
6.752906072056678
6.7469029253276185
6.735797217433929
6.732477057395174
6.731025177308796
6.730706184756382
6.729357879245649
6.727662439611008
6.72572372719061
6.724037933293294
6.722101493629043
6.72057206013549
6.720348802178018
6.720152789942821
6.719911796443784
6.719751507749274
6.713426625201123
6.706021422302094
6.705491972100797
6.704585982058556
6.70387266400822
6.703413701540258
6.7019846922559125
6.700949632408576
6.70064143706891
6.699715039284938
6.693401435296185
6.690361309697817
6.690228743160843
6.68784151993281
6.687301092862217
6.684162629972652
6.683928153395543
6.681922485754351
6.679067763144321
6.676252290197163
6.668403465049283
6.663836698357123
6.663556484452421
6.662107486907663
6.660157829530519
6.658094793676119
6.65790950462649
6.65354993608552
6.653127139900059
6.652755386566316
6.65088010861745
6.650610609578535
6.648981428637185
6.647566962080358
6.647380721420378
6.646264134109947
6.645826694522134
6.644789495006679
6.638316629134778
6.636915427092726
6.635895947885187
6.631953750238399
6.629975650591132
6.629262569388998
6.627087738927559
6.623913916454475
6.621655126510832
6.6191336467819735
6.617642947424501
6.614701549320747
6.614102678691735
6.61041592655476
6.608746223278534
6.606131850364421
6.601630346737012
6.6011725646129165
6.600656321272471
6.5994377718140775
6.5951939006860805
6.591642712188854
6.589056504714664
6.58711769509037
6.582328551950445
6.582275542896569
6.582203069075853
6.580812252704192
6.579945607748664
6.579714246651014
6.575354403359051
6.575305517214335
6.574817831193754
6.57440271031985
6.573716123459512
6.572875400666396
6.572298702834817
6.570358706567598
6.565266849829571
6.565103762718259