# vtk DataFile Version 2.0
Unstructured grid legacy vtk file with point scalar data
ASCII

DATASET UNSTRUCTURED_GRID
POINTS 115 double 
69.91348198257676 50.39082217854639 143.20095525323333
60.17764758860889 13.024380312686171 111.92401889761824
68.2808206497249 32.343935012114784 167.47193105833085
33.422423408914014 75.89452618902735 126.02111760680062
68.11535453555521 14.787083793772457 149.57460634898655
82.00207179656721 22.46424107982714 185.21700197722134
28.69661594614442 30.58923130051482 14.175476029831023
85.75664684659068 62.73665163902379 95.93105635822471
11.918654719424444 20.98560221500083 151.91352349765575
23.070567645076764 85.43013505598921 85.86026890238301
36.13225163783182 40.32582022909743 151.948498201883
47.84295198861234 21.89146090622439 122.2016534781158
21.307190885173664 15.735141264960127 107.46359024090049
31.533389323790527 85.9587830600175 161.13242391845648
68.08784043796916 68.91895965731607 121.76809603271063
30.061215645910174 14.525827863763128 152.28496256235817
11.069772175699988 15.72691810452869 31.757510998341345
72.1906130294235 42.282278854609054 117.54624652825672
69.98334933886312 62.62129971393509 190.877769081521
77.11999393111779 41.13035416508023 25.205982241665815
32.30888935857389 62.75197887074478 144.23051365707116
55.66116858602592 87.55489969231522 112.4075393706576
15.828165440333946 49.34432906772606 48.77161244470416
80.195238293245 39.532537997085704 105.88181955670636
31.860210625572755 70.85658597302708 68.28852090849867
13.9002450316595 36.7095124865988 73.66816218027627
18.787394463656277 71.45904788964336 144.45924856017587
20.520819973940778 55.55540873325818 130.96301025642836
82.01596254280372 59.69149614412662 19.835106582582327
20.048847746981288 39.350709477043864 137.74308572381955
60.57335689846514 82.6941255521379 89.32375911465111
64.15918975800102 55.23437786460265 14.786715268235739
28.038853785633904 15.2216842878105 89.12762928190983
19.653995577047844 10.547560117911212 125.41063934232506
11.232886992572482 48.971324610093205 140.97644466102514
61.3728212761025 90.55361732988594 167.07119430031025
63.71579650269157 12.442067568249698 84.90193820803498
43.525695251659926 75.60192112488019 171.5416945909773
15.582414041370361 63.33602704075824 102.25072612938587
49.53073712393747 50.904082834423264 174.7600411538936
63.533936739536635 12.886181579927825 182.81972726505668
75.25340100439969 87.6736063664926 16.259317108384383
72.57978860759675 28.018850223731285 87.55150731726152
11.14466027405474 81.37746740902938 63.612855490380866
53.832405776716044 62.97200365833899 157.1452689088857
71.46762634289443 86.29519497181586 186.18747709474982
43.152296058331096 22.91954661629371 142.01038847955343
87.08126563353724 59.05048861916715 149.1980088197936
76.60007172434558 29.207718095884786 10.869392488086799
12.972355597320314 51.30579885542609 91.16578492454882
27.853245369569223 13.790967273430901 173.31920397530348
81.96467559338525 27.363375327163396 54.46876220679276
76.34320809265778 53.21217348699287 43.73601567585695
52.93914315323554 11.155538204185833 142.7112394491661
57.31085689378279 89.17694220035008 152.86098774365632
89.35696842413228 42.06835141548872 141.9411932888967
89.87095641653926 71.73302794416384 163.81857476277668
24.784410865714335 84.3384358093987 178.56164162971484
59.898742522344506 37.71565686704967 111.16342379118845
69.63618991235353 74.38073172422165 153.7475786579914
10.13496354039984 9.055117310903643 68.04031209948789
9.296330608575202 44.71343833639396 163.0929136287834
78.05728229749384 17.881394780091398 122.49238607954953
28.89511372803198 22.89975457944194 116.86516293848803
51.47103011346483 48.11307179045724 130.01098164179314
60.216446665702755 62.39572345440989 146.087643242812
62.813914427833815 62.69005087665577 100.74128024167861
75.53555025447994 81.29581336529947 114.05416025512375
56.43014215876977 59.03050615253226 119.49442333372636
73.41748665214483 11.448587653596734 64.29410023350079
78.49458057389998 76.333518749874 78.44282798608266
10.881198296184794 84.95168981085193 75.4391439152993
63.73632752099743 84.82664840884321 140.7895792800082
24.46566826950577 53.89791024286731 86.91552088369801
88.81702552664376 18.09321827889806 110.81935756266418
60.487935235968564 43.770993216671656 152.29498098449955
56.45903557727602 15.380465017771307 130.4691483363676
93.16459162932736 39.3966615709738 97.86015421390138
81.17202254289253 12.028068773409732 142.07031458346756
39.230233462019584 45.6250734783532 140.52968534645848
22.8507377668682 40.14621309444774 96.1939418467993
59.666538304592684 86.49360470222325 18.3754662452506
78.31315119122232 88.93085667705395 94.40388589702887
59.51623957037337 24.22226058792898 101.41832391030316
83.108145551846 25.883361346670732 165.50053581056903
26.204836921342476 30.736293813051 53.530409214868705
58.07936266668351 79.84723545972793 124.95315292038461
82.37681264152359 70.89736693727566 149.14578989595978
23.450757767721846 30.045900825661057 150.43565896346752
68.16785000223533 69.56376526867965 170.85025592372267
20.51188052443444 88.09737320587273 119.00800473224871
26.237484022046058 61.18233634330946 8.70973867423281
9.879139023983578 29.074576963856657 40.025298863455106
9.064515991460647 12.843314978891414 119.42944670833751
46.13765870483462 88.58569357792548 128.01817029863003
90.19753538794811 17.4715126471453 38.463282340619244
62.89922651115066 82.97203787304827 101.99598579422678
79.05108678341396 8.00799430480266 173.36390978164212
20.654840624659936 65.2188460577545 166.12993699634066
38.2973922918576 36.768001040711624 98.02417758309852
18.50012981855001 64.94474553733002 57.116715024585105
67.82282577524494 43.34251534754645 178.40323764677558
48.033154996573174 15.935077314643191 186.24111027763408
13.668213872563227 40.43600252539213 102.28726421628386
85.94545900352246 54.23328778969739 169.2827900790676
40.346788698565305 40.16653678969316 88.20006320697274
94.50723415207757 34.40423569824616 169.23060584214895
10.262436551092698 15.329002784348528 180.0503665210879
11.508224935218822 37.66250381433338 27.429850512129246
52.591430838365355 13.494552271368477 171.818581841509
79.06075289641646 12.880015727785414 78.49959256942135
69.83237446203037 90.2317278752654 113.4480920798281
38.261731933833346 39.15498817890244 71.51251664222069
32.97031311270525 80.24715723286923 18.576720567008866
41.68901973162115 10.63988917036688 179.58951671320676

POINT_DATA 115
SCALARS Diameter double
LOOKUP_TABLE default
15.757316964737575
15.651874198570784
15.229834477506275
14.896002284131441
14.886513705586918
14.347455215474124
14.137450181832536
13.960695231541788
13.71264040346788
13.710517203905905
13.320018053085017
13.254113950948685
12.864874522373594
12.734946536592126
12.68977316763069
12.652353977565815
12.559330354074026
12.462936491437942
12.439004516178382
12.436855805121592
12.129148214177418
12.005375832059846
11.992565407804248
11.971366262541414
11.961582034562063
11.930839060546425
11.926500819302147
11.900453918998599
11.805702349157063
11.713911567719087
11.71253663616073
11.599463152981453
11.506676714426824
11.492034148138783
11.418274437995303
11.258704792641899
11.242543390659417
11.240608420795501
11.232184961437175
11.225283758053521
11.173964101920063
11.172734637376925
11.153026150522823
11.139988948637438
11.118506957112174
10.900983354177312
10.896551511697128
10.88414467558361
10.833404960197525
10.814299525091785
10.809588406993386
10.66635246369541
10.663570893583335
10.644365129985209
10.568341228249926
10.500428884719636
10.42780504180954
10.220202382169385
10.186963088931883
10.167048587715586
10.094940062081962
10.023970596389827
10.014866144763461
9.829846136126442
9.810343428219356
9.745152876171685
9.728440247118016
9.719900803283426
9.686096595202104
9.512328501753506
9.491570617291483
9.446076407239183
9.389072887264296
9.161155373641684
9.015619820903133
8.967498243907245
8.951682467778205
8.935876245858656
8.91013552986546
8.887635606173237
8.81970404024495
8.793220917641284
8.721158609387071
8.70104061079902
8.679672772721077
8.672118334834195
8.665100953040305
8.616106987042546
8.612514083674663
8.568857474491313
8.561141633449255
8.546228458777275
8.53888359691182
8.497706768743589
8.49637007539773
8.468966182072062
8.413530824831739
8.352410020929563
8.2919979733912
8.276977389279276
8.26782415919199
8.256590859370014
8.234321627883292
8.208276236580682
8.197914466399117
8.17424001299243
8.143484027652272
8.110806684308915
8.096794729485744
8.096028514597192
8.080059036034372
8.070485320429954
8.041620256801362
8.039842027704141
8.036071147360094

SCALARS Material double
LOOKUP_TABLE default
1.0
1.0
1.0
1.0
1.0
1.0
1.0
1.0
1.0
1.0
1.0
1.0
1.0
1.0
1.0
1.0
1.0
1.0
1.0
1.0
1.0
1.0
1.0
1.0
1.0
1.0
1.0
1.0
1.0
1.0
1.0
1.0
1.0
1.0
1.0
1.0
1.0
1.0
1.0
1.0
1.0
1.0
1.0
1.0
1.0
1.0
1.0
1.0
1.0
1.0
1.0
1.0
1.0
1.0
1.0
1.0
1.0
1.0
1.0
1.0
1.0
1.0
1.0
1.0
1.0
1.0
1.0
1.0
1.0
1.0
1.0
1.0
1.0
1.0
1.0
1.0
1.0
1.0
1.0
1.0
1.0
1.0
1.0
1.0
1.0
1.0
1.0
1.0
1.0
1.0
1.0
1.0
1.0
1.0
1.0
1.0
1.0
1.0
1.0
1.0
1.0
1.0
1.0
1.0
1.0
1.0
1.0
1.0
1.0
1.0
1.0
1.0
1.0
1.0
1.0
