# vtk DataFile Version 2.0
Unstructured grid legacy vtk file with point scalar data
ASCII

DATASET UNSTRUCTURED_GRID
POINTS 4 double 
1.0 0.0 0.0
2.0 1.5 3.0
-1.0 0.5 0.0
0.5 2.0 1.0

POINT_DATA 4
SCALARS Diameter double
LOOKUP_TABLE default
0.6
0.9
1.0
1.2

SCALARS Material double
LOOKUP_TABLE default
1.0
1.0
1.0
1.0
