# vtk DataFile Version 2.0
Unstructured grid legacy vtk file with point scalar data
ASCII

DATASET UNSTRUCTURED_GRID
POINTS 1460 double 
12.568393438325685 78.65490415308754 12.447627754227817
85.82211025975839 11.646830396960821 176.32267803682723
58.794902694962126 58.47269165685148 118.84855616879717
23.052199896247124 69.52091940863542 88.64668247461782
88.60399677993931 28.44738798016139 98.9356401973448
23.85501541646851 45.97555059316933 127.85699431204547
36.900520124250924 11.786848188618348 140.4073013265774
10.588206110098227 19.988929316549655 112.65100819650186
68.61532769787254 71.14404606449352 95.95983015517164
84.37529709297601 60.44750868581641 153.97370143152446
28.797729555979434 78.02046514581319 146.96140485404794
58.64509831095717 88.65639021397526 132.38895370041098
44.93958869646949 41.426645632818335 164.09971713403155
75.00445859687822 27.6884017582098 108.22704071245596
72.58314350870911 71.5222618320663 125.59909346057287
55.210376910453185 25.95577228357567 178.79688247643605
32.152128940727934 18.32538733346575 121.39745543126136
32.712499232206326 62.531605175422364 68.47896910829579
72.714846300464 82.47488067110389 185.03950734543216
39.567043222852334 54.47305375729295 113.87368000543128
50.03399176414473 84.39520757323035 116.49319068402006
62.287099335974624 17.328809592744292 136.9188501037828
18.129009107242105 24.058872556231478 143.9889135334418
44.80283836065024 69.14459225736475 117.41883400212951
25.042713590503176 23.922772228563602 84.7219805136208
88.02872727172473 10.469948862863342 159.33535028294222
42.7609740912132 15.896901127548372 164.78202892767905
70.9098842746896 26.502660253693314 37.30022205983472
38.647343637528216 58.55042683497269 148.44458179127133
69.63377472573625 23.83167042605855 77.8577358974697
25.786309173046984 71.36202834300552 120.71236276264742
63.64723108590429 40.8077381696533 127.47965146892814
9.115457833925369 62.82419605741727 36.92269846760447
16.281983211207386 82.31025261434672 62.53336523523575
36.99009474124993 40.81711156988606 45.70452591394986
87.60908788790304 74.69042927426936 102.17902727701869
38.05511133770008 53.128513867042564 130.25316057303897
11.696966039104597 58.93649395198549 127.561351656208
24.33155636162614 15.992302391266708 161.97058163739533
12.387954381773776 78.05140628433297 79.3740987831458
37.82459042618578 24.125535286798808 63.52529262773289
35.11083259848465 82.7416000696784 103.5105022941535
24.61543132320632 11.505823827980748 108.4103129811994
80.88583478158584 65.69855815311301 86.15036422302111
50.918680338613854 31.350279369631323 115.08989192440184
73.16324130085026 17.97389315038135 11.08355704497359
76.82049255558044 13.020294818201684 95.70502445707471
66.77095081486038 42.088736126406026 53.20705491103471
87.58849904918456 77.58727693361332 163.7385370059453
41.595819805607505 11.291140526993544 190.70083696732718
60.07857065987075 57.60288581145178 21.229030852303914
67.72615268994763 57.227145032832475 102.46230903850979
64.73268821870008 59.83949673548501 169.1000733801335
21.094626924766327 44.59545341803072 71.04404876673037
13.737718222297326 62.96819954277666 177.45232455876433
84.66323303430374 20.25475844934315 68.1277401024354
9.368478299636967 68.891412921361 96.54093923963998
60.25305288166943 10.27739149708451 105.09965091936151
84.64474469811366 16.765520621337004 114.67217378792806
36.13205341701876 80.75048047347799 55.01665190867211
34.025797882664776 38.973027585377686 139.36282266713823
89.26281617228797 20.118420348695064 142.0523605774086
67.13445310815155 53.96049504644442 153.794777613079
50.31289316154899 83.05231724085375 172.75131828118117
23.266113897395226 53.257373533415034 166.14925940284417
32.97687477972406 27.191892894515064 101.60408106705323
45.025445011705365 31.0480957147337 142.16484189789577
88.89092954542056 45.56931118201727 101.01769166431008
60.740804227554975 81.63005496314716 80.64572675653692
35.44202252142617 90.54587729973355 127.31148283760481
78.21240788606383 48.547598846361424 180.2112107204417
35.356777224806606 84.1935000644629 78.81915895197362
8.867180089891475 90.66296798972579 138.2960936720362
24.6147878073782 53.74160323951928 88.20060498976984
15.55625774869658 89.06454755667554 126.3716945888409
26.976926363681645 11.65421782841719 46.30544136493392
77.26050677805156 13.850905188888236 146.32816703409307
13.614733541719893 16.719857595689533 63.47809857901355
51.02660498931563 63.534879526011444 188.30971142557513
38.156967974729845 54.81879077039888 89.20387508886054
82.37891313202094 58.09556151711366 33.3697416749451
64.97389000156271 42.81769659805215 106.77386623339189
45.86317064261814 14.862187609525503 116.3443314661359
61.46283950249202 24.94152919740269 122.03930733054322
54.40041901486579 79.61689153693591 157.05052585537408
78.67264902620396 87.70786425245936 77.37562804408016
33.95091012078331 24.78355515628309 154.52270024623314
35.53492580626762 41.21657551262756 20.682283755918967
65.66436622141511 10.34147011329114 49.56013423449708
62.09793791989545 57.80297826394547 57.648536491563874
16.538206967770922 26.79603019579566 53.77361204933445
88.39326048429196 13.562924574527237 11.81987970783278
19.53124656982803 92.22137718638601 174.88445060246704
89.70680336614278 61.113858190474 54.35460775168992
77.17899190970655 78.02639614562233 58.765418907841806
89.40875565936892 34.85800969255604 42.04732152214599
88.90103055296652 80.13040380698527 82.85676656208686
32.13382941553902 50.100533671440495 179.80660620585263
17.781940139461426 62.344326993270315 22.368608405894513
29.070142756655056 32.09009921620751 170.98173299480086
15.532293806447223 23.941181069968458 24.841743563603703
76.89265272863783 9.625337826344182 62.01608839867165
63.26543052016896 34.218639662321884 87.91013990933818
80.43607962562872 82.75151212827038 132.860602388415
71.18868198118575 88.7094151590889 115.20368861513903
70.3106433633284 8.685460389141374 187.5565096556483
32.006957031156524 62.84793915158977 46.77918553236519
13.98301833931318 65.00848593817892 109.67459067039229
67.19701738437979 32.75275067426359 64.20602845555139
7.6137743874954 15.042135127639629 96.4004968017624
68.05862699364891 76.3894640524235 172.3389128097949
44.37292682678636 78.85268046433599 146.8461238382887
55.923651499812344 80.5049827087156 191.0893282131055
58.63148856099776 29.31736357830492 158.32928945641228
10.066879355573874 78.83154004550592 43.1459122749503
77.87982122253516 63.98684633624679 60.00074399006984
31.7167819316286 56.0624261138217 32.93834427089212
63.8576837269491 34.466714496737765 145.5127241852516
69.9136620485515 49.03141688047433 15.19599997849567
28.34064040746179 87.33394025389144 185.64202770658625
47.37887263146848 69.78060480470741 167.07571103272443
24.842497794265867 90.41099796696516 88.26072313719843
56.10186559881758 65.29444887113947 155.30287634100156
75.1895646584297 34.98282798872478 96.02920023695492
38.87037455679141 37.09514144113633 89.58383528905753
73.9571810688187 66.88033395418323 140.87785596383304
24.41977329122844 27.634887231048566 35.89502690060488
36.78767777675773 77.66811819817566 187.62794534445985
15.168493098184038 41.73887336402411 35.75126066129942
24.274560982264763 59.53678013900715 10.309122771172554
7.840528091129515 28.71711003651538 64.4802877297765
18.556625805531766 45.0575277440572 103.07024936450581
61.290672789043384 85.82424025273066 7.8197780123053935
6.551780065596731 30.010359409404444 81.8615353122372
61.08788869599452 92.16305389311209 39.383175479189575
86.59130828543442 35.78487570338985 163.25122802940362
35.761610822634324 25.95647783305118 13.330686765846309
25.345804702823855 50.38751613760909 151.37839583407256
66.95149247356872 43.28475357191891 164.8190146849005
65.93233763426123 57.80899178677087 138.7728742726272
87.64090821641645 81.23547802787465 22.436280468562195
82.45402681825452 67.68123885903333 192.3011114248286
57.60163274970117 65.63842225665807 141.1023037824669
61.84463673265048 46.23164569555482 64.59720496202219
9.305324723818629 52.76783907358145 157.0579876402134
16.264309525876712 92.47336529408636 159.5596419517858
38.55477440418015 26.766032860542683 42.5973257481268
8.620561534878455 34.368811513369515 120.70111506428299
88.12438461890162 46.20254524704422 117.0594673298255
61.046431950011964 80.47752435868878 40.82270444724219
17.856198732011528 80.20623633273526 100.37763110975379
91.26343678159711 20.673872077886358 36.90920372218343
49.47939698676373 68.27288881066868 132.00839341893175
32.9846548973377 43.200806706186114 105.4021112178628
85.40000029834887 20.604244182165694 189.75656943937523
37.48287670227479 85.29216854756899 32.51406335797247
29.972981965543802 36.69498220943031 185.53446640057533
88.16485725770923 91.88205224638162 144.2724120544161
31.273430294397166 48.80058923735983 8.773620487751604
73.0289644891874 28.08389471179553 180.59590842652966
9.350095306364457 15.861406753753169 170.79697398308377
51.86173057026901 90.96607128374018 146.01931530840346
8.805415565826035 17.07786875300196 15.102223816132515
52.40918741518701 21.789531896533735 150.5769835965067
73.26316571894463 9.592049754378266 128.50070712934826
85.27713289217348 64.53851201779922 128.41365479914447
8.311195450377788 44.14066326229181 14.137624282331771
29.438435229819397 88.2730428549304 19.34686918332803
61.136899047059046 74.76062507349451 22.01754324506128
33.134961564900955 44.04676566553782 62.92669251913143
67.86913712344945 7.852099360077935 169.66481198244298
17.604182021733585 57.268901583429745 188.90853330989205
59.53804718765742 90.92620496762582 22.869491434931195
18.126078543628502 76.93839408210597 129.88212987918547
91.0679201758738 72.9760103508565 62.27351195100621
74.44978187416511 83.14991439319783 45.17475247534364
[...]
POINT_DATA 1460
SCALARS Diameter double
LOOKUP_TABLE default
15.992082078120813
15.858819143151255
15.78173588128164
15.60378106602948
15.59999344228009
15.558414739946818
15.478017067952337
15.476408187322196
15.421729552150953
15.415510322547895
15.24528295251643
15.243677701566632
15.1912031374716
15.176165101408882
15.107060574302771
15.106696724203989
15.105356088521681
15.055700827227735
14.983347020944235
14.96901194233434
14.9608189969665
14.876634320769211
14.859265823930283
14.824181609949388
14.794952274803673
14.712185810360733
14.427735114970158
14.383124417494006
14.159879206145822
14.143046806944984
14.116652764967817
14.08217907404595
14.047115980854022
14.018845350848004
13.970003672674821
13.963738822186933
13.826906105430455
13.764774936264901
13.73846764024667
13.66530858670802
13.650495243392587
13.505961518666822
13.493253452745325
13.401830366548593
13.399050307037879
13.398326643758693
13.325644584250933
13.248101632323912
13.161170514814202
13.152139261450394
13.149604742172347
13.11478022359832
13.090489814549597
13.08004144482307
13.054429216947865
12.999680848627671
12.922395031898438
12.903412378241502
12.891131007251087
12.886681659329039
12.852404410756744
12.830704893432078
12.806320175962906
12.805214932620604
12.696614395889593
12.688148726659685
12.67829744863063
12.627186358101614
12.619869386201968
12.5711969623344
12.544806683817454
12.518103785094967
12.460871491102916
12.460734659205027
12.445917664065346
12.433803653297002
12.422586829640919
12.343101509582493
12.262768011903173
12.250708176066942
12.23172437631746
12.17483286691367
12.136336197792692
12.129824729684259
12.120975975732858
12.09576085609827
12.07154253446556
12.065287354587511
12.018529820578692
11.96109372599786
11.923695654974749
11.900761225899615
11.880597018671061
11.804652279019622
11.797150737449662
11.785520946986072
11.7762784834704
11.763539425284748
11.706679400370748
11.684186802790046
11.676324227827061
11.675951460948891
11.660298053983952
11.639962624517548
11.616776161802902
11.614184141287136
11.551101346553342
11.545942104284492
11.535035412825573
11.442446533452234
11.384709025025526
11.31528271549138
11.269620581548327
11.234465844871654
11.21157913209391
11.20892590233863
11.158252677863288
11.087963068745434
11.040250921174959
11.003263172113764
11.002822989540082
10.976662799610253
10.951849758155559
10.950776836711407
10.945354886336208
10.918813827512013
10.916745251842702
10.912350186193063
10.910610890415242
10.836000544581507
10.834126919860747
10.810237032338097
10.788349802358042
10.78527207934344
10.776368973882672
10.75485436254372
10.743255981506227
10.738458660277475
10.691590777886626
10.669805582055751
10.644345982394274
10.640495230140417
10.63708316575768
10.610946817693002
10.610720643651845
10.58779256896528
10.525768747100038
10.511471688139107
10.509662761915772
10.506895174523036
10.503999099171736
10.495325363538834
10.448461539688203
10.442685135072587
10.441252505066172
10.43856822430708
10.412875887140318
10.397436449120754
10.383632539866806
10.369224369660284
10.36571363409363
10.361935528066912
10.360321134675157
10.353405425250074
10.348817561341265
10.325837060955545
10.299165862762393
10.287218810557185
10.253155407709567
10.228126565031012
10.225082334976284
10.218293815449295
10.214052642437279
10.162009950961767
10.152650125000198
10.148278298368993
10.116564528072423
10.103317758841525
10.093648218485942
10.089129175035579
10.08217913899058
10.046187472619925
10.031054663175794
9.981632014174105
9.969265029346005
9.959974920489332
9.951289590540629
9.947307939427047
9.916460399254643
9.900019744199453
9.894713997681004
9.867752980611455
9.865483723615482
9.851968847850525
9.84532346849021
9.841480021272076
9.804616497603755
9.786351553110473
9.774053472745011
9.767730380861844
9.762332954549162
9.75465943399413
9.727258235183275
9.714977589074543
9.706889369592108
9.696144969655363
9.696062132184743
9.677704699081406
9.656958692019455
9.654408413062415
9.649564288542326
9.646733792526582
9.630248702104149
9.628684234958046
9.624035044341845
9.578981644595359
9.576164136846025
9.54820636290518
9.542561440035449
9.521554762244735
9.50946067032847
9.503909133375691
9.492165432289019
9.487532498492289
9.475275634107469
9.473780067474227
9.453680585117038
9.448445536378768
9.42504662843339
9.411367705475893
9.387757515538667
9.376126223886818
9.323560822182014
9.320040104928323
9.274410147349709
9.261362685262025
9.240817079856834
9.224892899511744
9.219065450056682
9.210413376926892
9.20581416774622
9.199191182572457
9.197091849501373
9.169278160072382
9.161560874508616
9.147713100283895
9.131710704067256
9.127071474955953
9.123068562369212
9.122343355166695
9.11595715558137
9.111916104399597
9.10711174889885
9.101284897576983
9.098810056177388
9.097204313681718
9.092825389906476
9.08752272148018
9.083015799029813
9.039519070358855
9.02975479410652
9.001415081357182
8.996196885998339
8.994089664320931
8.973484139064826
8.96913046530446
8.967333939505215
8.963681991699332
8.96021894673543
8.94905196041461
8.943133717190873
8.939349171724782
8.92548079765575
8.920974237175033
8.916490937617791
8.907701332869829
8.903338153742252
8.898465754021629
8.891333833703456
8.884604664701122
8.88094135588531
8.877236639568396
8.872293729145039
8.849749888779238
8.848052122673066
8.840647424387152
8.83535926126553
8.826922828350465
8.806028300966295
8.80300011993588
8.801772525735265
8.801173250521403
8.800980295254977
8.796618801444144
8.792179896783766
8.78493924687753
8.781075176709766
8.762995693633815
8.762227787391346
8.748546529255224
8.739789001139968
8.691964619698084
8.691664499141467
8.683917011820967
8.678358394931916
8.666984877085861
8.654156401559021
8.63840271067562
8.632649838013522
8.624640885515358
8.613369083794304
8.594923814123641
8.587733208386961
8.572054983196004
8.570906270019726
8.570152679592356
8.56476997123485
8.564743823764001
8.56091105743072
8.557684056686012
8.530138925079964
8.521380579035574
8.515236010197476
8.510436637709619
8.507997550981521
8.507034224379606
8.496649321121264
8.496448176770826
8.487481345940363
8.480628676370403
8.469867683605912
8.462398847133041
8.457373437682062
8.432264401022865
8.430161192349408
8.402453153351907
8.382010616853735
8.36589335617479
8.347665563697143
8.342117157984974
8.341461481994523
8.337288218667162
8.33212484455315
8.32916180135254
8.328070009696823
8.311930697293445
8.30976252014177
8.301224072842672
8.294168094518797
8.282721391016779
8.281899823461874
8.264004793401652
8.259950745753502
8.259073042376627
8.248078370330017
8.243342089454393
8.23975854612267
8.234866929910302
8.2210187507583
8.216527219229029
8.200808519813323
8.19657045184989
8.193481303252685
8.144207748424424
8.139606810597972
8.129668869539387
8.127466682270981
8.12296955895279
8.117165757110278
8.114385802622476
8.113981566296317
8.092568985676417
8.09120828359638
8.085325547457444
8.078941151660278
8.076213182597362
8.074245570699203
8.070600344353824
8.055985865911799
8.052608022328089
8.033568337030568
8.031016846896438
8.02576079990716
8.023560070909198
8.01879538048627
8.018722538321533
8.00578083127005
7.998862781193742
7.99835236177905
7.994339262589792
7.98932865060886
7.974302189651086
7.969506689664458
7.968767883206605
7.9650500068990855
7.960311196309032
7.948540302317352
7.948411846644375
7.946482054284144
7.9408004629251
7.897414669264885
7.89588515617925
7.89489047559437
7.890900054339425
7.890679530652199
7.8869086854557064
7.88593748402149
7.865910325455082
7.853760678224368
7.8535220026663435
7.829045114047974
7.8286237655138216
7.828499543858474
7.813129676482642
7.810844884504066
7.80136623475293
7.800664846207459
7.788336117722072
7.778756420339949
7.772063799236447
7.764650562347331
7.748620615192015
7.747476830645996
7.738598943404887
7.735321620983911
7.732467456229925
7.712453696817118
7.690826273889051
7.685363339715904
7.672454145169025
7.6699104954743
7.66960499962281
7.659022084126627
7.652652363288077
7.650218541840391
7.638539268386884
7.637068860525373
7.632888645377907
7.629379498011145
7.618460079859975
7.61704789753395
7.6135253053402305
7.610839408358917
7.608694941813407
7.605870953122688
7.583063261679501
7.580681984918025
7.575750134167669
7.574795327237891
7.572041732669247
7.564720204314098
7.561328937308387
7.5575332166658065
7.551759394141911
7.549605222991117
7.544553724901276
7.541554277744984
7.5022433004797575
7.500967333293614
7.500755300686226
7.499262072557683
7.495267680084833
7.494453672521067
7.475813059945096
7.471459739356085
7.468968843701198
7.4659871761288175
7.464848288599376
7.463497776372949
7.453575391578539
7.451595818915758
7.432141691427248
7.431847356725928
7.430425598990407
7.426591110060415
7.415904289247292
7.415390741397215
7.404600995696632
7.39844217697158
7.396272030977999
7.395594404321779
7.3903751522083185
7.384942433980975
7.380683973676808
7.378554384961257
7.377643825461542
7.37567000128454
7.37301857438209
7.372293535417537
7.370632065370369
7.350399773071224
7.344776411891424
7.337457034057284
7.329230250815665
7.324636292234245
7.318697575804477
7.316108739880077
7.309313505364001
7.3058389430781006
7.3032149516368285
7.302770151823638
7.295966702002598
7.288796180985746
7.273867652887191
7.2705420672759065
7.26910256015716
7.2618373034721975
7.261387966621584
7.26061205799903
7.256679507806937
7.2566741195173865
7.255573066832404
7.255299075355794
7.252634142612191
7.243749258419263
7.217105875374308
7.214741275864645
7.214722000251623
7.205738981713836
7.205094421391836
7.204058612186934
7.198735016560429
7.197116682893945
7.1942808614959555
7.192239268956136
7.181994398024456
7.17687731510402
7.176616107425003
7.17038437547653
7.170290895366808
7.161522527955221
7.158035672709753
7.156881001611007
7.156076905950307
7.1543466524598545
7.153529291180245
7.142390549242384
7.134199319288906
7.130717105986032
7.1254902668962306
7.1150671304116555
7.095758483622616
7.092820027410946
7.092375705576223
7.091197283625127
7.088912991318309
7.087212803147542
7.084245161330131
7.081698995775982
7.081217344945564
7.078692935679699
7.073401460017795
7.072113978733212
7.071016735402216
7.066834076973868
7.062638482184417
7.061986926755904
7.059172228067695
7.054220346504499
7.053162289257221
7.050421176511171
7.038724690813226
7.035450196362997
7.031248300078115
7.027603501015428
7.016172865998124
7.011823501110763
7.003183583817224
7.002285782252409
7.000245460893737
7.000033916035697
6.998631328273907
6.993608071743357
6.9835842640392904
6.97807419893771
6.975227552630781
6.967513494249892
6.96696124012856
6.965596269240521
6.964310436476255
6.960263290197015
6.960176979031118
6.9558711512425475
6.954956932415028
6.95004716031489
6.943483921072926
6.93907961950887
6.93421036364842
6.927141913554369
6.924288391013533
6.914623287695606
6.914018639691339
6.910821560340672
6.908070434454798
6.892731790796565
6.889423583973794
6.8878157851176685
6.886207745697922
6.883099207323675
6.882061050787426
6.8810963087360335
6.878565204504492
6.87309916928824
6.86805812515967
6.865637664218996
6.863518610843155
6.862361375319763
6.862354609578131
6.85877023681908
6.856184521000052
6.850943848756698
6.850492542680388
6.845991199538779
6.840559103602761
6.8196654254124125
6.819335860093334
6.819001878435156
6.817212983052824
6.816047619545932
6.810999770886327
6.802847458868856
6.796038141715829
6.792257810115725
6.777545352742162
6.77729054061275
6.776759254091651
6.774892160038264
6.7712768198089455
6.766117725056019
6.7647404584175765
6.7500057578279
6.747223303119153
6.7346883545452485
6.731631831014897
6.730482241992424
6.726006284252906
6.725879824185416
6.724735133545263
6.723178408447526
6.720649028033224
6.716471526670126
6.715081941769395
6.714596061140147
6.712821466108458
6.712694306139283
6.703275812099173
6.703246051913592
6.702961307806676
6.6974484984782565
6.696497169520117
6.691545988873838
6.688621839386899
6.686295153764343
6.684953690703493
6.675361626266626
6.674026314449763
6.6584707750484995
6.658296735701948
6.657964996692703
6.649152848449442
6.645111304927277
6.640395905686818
6.625272980074333
6.622069823453432
6.6134067526884035
6.612020967429302
6.607452515290667
6.60669477062794
6.58216804912695
6.581431548149057
6.566870975632659
6.562334877409148
6.561290742238082
6.555595727963421
6.554726263524257
6.551812341947507
6.535985940649893
6.5344072698786215
6.532689919813964
6.523259786079865
6.516077336369652
6.515411510835377
6.51132928095749
6.507067177473243
6.502920629521725
6.496161422865478
6.4961270647788645
6.494392115327592
6.490685769240484
6.488105334650907
6.4817611857551345
6.480096965969958
6.4764866120054645
6.475558741253087
6.474691702954631
6.473916821770546
6.470374996381883
6.467661712515821
6.46666472286673
6.463324278976725
6.46150401777817
6.455973846912571
6.448853764344397
6.4466540261347856
6.444350400023478
6.443990697278622
6.439753659004264
6.439422908760522
6.436885676538841
6.434060585994606
6.433937853039879
6.431697860477035
6.430385771456924
6.428268823911352
6.426797365884188
6.425790080319099
6.422864384975583
6.4190437579856905
6.412366597302501
6.402477590138599
6.399631513888375
6.399607354032415
6.39623100478243
6.394807588964843
6.394060945555791
6.391925427331046
6.389886581284225
6.388788012707314
6.381618819827974
6.378244127752854
6.377051741417061
6.375504447048888
6.374735820732703
6.3572414495614
6.356104803007717
6.355965650797914
6.353481682844703
6.352113532898159
6.349085418585933
6.348756530919046
6.348342171255727
6.344054711184866
6.342075742704969
6.341552754051043
6.33964785094367
6.337020499381204
6.328856203127835
6.328221674068903
6.326007555629603
6.325639161991846
6.322928276291008
6.321181836910457
6.315635771894122
6.311971877169842
6.302763345390288
6.298919727317837
6.291905654051234
6.290445243866252
6.2888322516118835
6.2873077606030945
6.2797411142741595
6.279115650097003
6.266881266964503
6.2659820366230825
6.2618094443138475
6.259884005463964
6.2550666903964665
6.251048724398117
6.2499121001061315
6.245649570922844
6.243353420006759
6.2432341511256535
6.243120481319153
6.238791722540338
6.228421385265363
6.227856457403224
6.227014690429415
6.226385571603822
6.219101554583846
6.213306051595946
6.211686135541045
6.205624874092818
6.198258777383215
6.196663621392603
6.195836874206977
6.193414226870382
6.192380170614871
6.190426821107229
6.1882071190862264
6.187446598397667
6.186026715142589
6.1838453212109
6.183185016093673
6.1823355377226346
6.17917839700424
6.17896643480742
6.17753520943145
6.177179471912396
6.176462234049922
6.175826693110231
6.175020884910177
6.174187139783519
6.173870111360311
6.173463802287191
6.173302893312657
6.172335380287927
6.168500461954539
6.1612764315673685
6.160804821585465
6.158582886234142
6.151019431892429
6.150086501077752
6.1463692811337625
6.146131702519356
6.146094478777662
6.145754345484519
6.144926957827552
6.141779812234613
6.137111546627074
6.13704389677144
6.136908161236948
6.133749000928526
6.133087648320679
6.132278484671114
6.13163997809372
6.128648780891469
6.125317432041404
6.123309310133571
6.122410654034935
6.1208029752661055
6.120307567915902
6.118226702325797
6.1174127902751065
6.11639105652489
6.11549924250816
6.111993687625317
6.110571962391331
6.110549725541809
6.109863661746995
6.109757915034663
6.1060116780896525
6.103986246629556
6.102092972202398
6.098319391898958
6.096552100921927
6.095726462458452
6.095272856349697
6.093908958448004
6.0922824905718675
6.090156833630188
6.086204530995651
6.08554434890582
6.084937135571723
6.0783840277860754
6.077225015481959
6.070811032599196
6.070564006993968
6.069884603976386
6.066252137359865
6.061594199902598
6.060897955052057
6.0568267364577055
6.055933825335158
6.055039499418326
6.052174754445487
6.051472452397442
6.0492699870422175
6.047473118527652
6.0457357359233965
6.041692135277426
6.038040767769784
6.033403760272028
6.033139973463783
6.0299223631005985
6.027664971432976
6.024169835675572
6.024080344644015
6.023630942284371
6.023444601179903
6.02047794972144
6.01845011880453
6.016440596754653
6.0112204833804075
6.004994080776484
6.003615058026882
6.002433367111192
6.00040912977531
5.999359031152997
5.999298749561337
5.999296035571304
5.996664791221329
5.992293040418467
5.98940527759399
5.988476399278209
5.977305734903347
5.977083111966733
5.96757596085075
5.966332800428892
5.96511687321275
5.964166799087992
5.963090890158641
5.962575365371274
5.960588822264572
5.957556633838785
5.957125142435258
5.952563216648668
5.95125502853838
5.948466406274627
5.94712541136131
5.940619445675056
5.939431069940968
5.9341473915014
5.933637434252926
5.933130102427414
5.929236917389218
5.927572428343933
5.923309714408315
5.922138916043504
5.91998412421529
5.917763254646243
5.903088225111768
5.901711312419735
5.900786489754994
5.895269979301574
5.893630945366326
5.892303769778704
5.891014671542889
5.886908151958339
5.8845000149274265
5.881412246742713
5.88119730378005
5.878824636975288
5.878101781872082
5.877089555865227
5.8752567934661135
5.873230003089926
5.870528524761643
5.868451196066156
5.86156807536398
5.860244767227626
5.856260215509607
5.855877828178545
5.854697237324322
5.854580018435371
5.8525648772407735
5.852499485034935
5.849561209141525
5.848343928641105
5.846134729425037
5.843336541504898
5.842580871518029
5.841372404140978
5.839926158478184
5.837944656090075
5.8313006891051975
5.828488292664628
5.826971516435556
5.824587439761711
5.821831846085921
5.815590943557662
5.8102143291477955
5.808950618272228
5.804116381660417
5.799853045394043
5.798556292742388
5.797718981371284
5.796627873548809
5.7956600658642055
5.79394984785559
5.781737210783875
5.776596677004678
5.775690863677269
5.775388407402219
5.7737186567443555
5.77056187318894
5.770534706631327
5.770063847292642
5.76310676230579
5.75949274865004
5.758519425445311
5.7579436270452256
5.757715544449581
5.754789733018204
5.754183098648065
5.752955136908829
5.752825223083761
5.752326892444787
5.751365269666213
5.751167725144571
5.746878313818709
5.746356351966928
5.742923415706698
5.741879787033877
5.738042175117215
5.737108138480405
5.735786329374805
5.733735684454164
5.732696502577458
5.731215902249616
5.729784191446536
5.726844145744997
5.726608906674101
5.725396712480903
5.723920217572194
5.722616458030129
5.721868581817696
5.72184382269755
5.721140575273652
5.720488829084208
5.72026151916344
5.720070828626625
5.71958023804423
5.717988006614033
5.717605790862451
5.717437742670421
5.716528515323775
5.714910557201374
5.712849913290555
5.708245300906121
5.707741541466408
5.707604461368887
5.707451207318458
5.707406262068908
5.70712088687193
5.70617869365968
5.705582783931535
5.704603124647381
5.704330278841789
5.702565714640675
5.70206553110062
5.699133504819066
5.698779552552049
5.694445815850207
5.692616547248153
5.6883160769489844
5.684317530471228
5.683088011811184
5.682947063135972
5.680352681113179
5.680038485378346
5.679283434096519
5.671912569711941
5.671558960791647