# vtk DataFile Version 2.0
Unstructured grid legacy vtk file with point scalar data
ASCII

DATASET UNSTRUCTURED_GRID
POINTS 1192 double 
52.98938354990852 71.19916035265696 163.10524588942644
24.895477520478995 69.85765829315321 157.99591150414346
10.435942842238086 51.82337997066559 190.46694543249623
17.086366888249348 77.4792610307915 132.76466893843914
53.44444238806667 50.21097202764455 116.88770973230714
10.755916965710165 49.83140647100686 95.79595673519466
33.28106617541733 63.68908043104592 169.38058288989535
50.89539455477732 75.15908580384225 105.98673505466259
57.86199550470486 13.838307796968706 179.65663367085966
84.34062240048372 23.988052752123238 157.81990516066784
9.08136553352037 11.71934215679666 141.9543848007875
36.20728802100549 8.771090154760016 118.14520868944622
68.23763531237331 28.0678789258333 73.39696041605242
88.36989060718355 14.967070969176564 10.283299725704813
59.58571363908498 20.1506572352937 133.43935906705659
36.67044989199315 72.39184301863074 133.78642689662007
27.197145829950976 51.85580287850695 112.43494728815725
37.101583978121795 80.06876266041985 58.06206319077397
26.37590075787021 32.421396990821584 109.54398730955148
30.93046412450877 78.70624279150992 117.62083324808015
81.90644525557764 22.114453602016983 93.29212183399339
57.374087809269675 24.057807952055402 107.03911146849669
18.7479728332462 51.295516314140265 156.12486521860652
11.83124637026843 14.466330286464121 30.113533929438322
72.51390485786683 54.649400538362755 31.35817937308997
73.60941978147075 89.57261248070164 183.21760241532934
60.83883364795582 91.03395015031104 122.59735722630046
76.60004738525383 63.322933193279624 64.8169116270203
72.23863591776269 36.022142522291674 114.74017213373338
19.833754070576894 8.776976485838379 98.36596263945678
68.09228438847276 69.38158259064865 88.53853166620607
32.90246827625425 66.88683522516625 51.52832616296182
46.16573132817205 46.341846478387524 51.03342819163781
52.380227682989556 65.29290904765855 82.45495059941275
56.4454111595431 39.88037796619137 44.08992806858527
15.036944776333694 57.90727104993655 28.828281910275958
47.343940984232184 65.38647802530812 51.48909836656548
73.62223471602263 64.44060018743541 190.61105654271944
73.1115294560392 60.037398699508 52.506954249390496
24.51115175370557 15.798748162196436 12.603181904726924
21.59512937989285 63.72807426484948 62.7792089769148
15.88199867004125 70.55128840531583 45.99337001574092
10.309510184336002 52.96692048497622 129.1267440048506
61.41775539014619 9.828665955237822 72.15470722509612
28.62839700308734 66.25120478168101 110.81277850363574
63.95029185586114 61.49969316363816 13.363260341522016
61.560457133922185 73.69216414191929 114.17716808708047
52.593347792335365 26.099292651483132 71.7550182862467
10.229115960433768 58.23068445917443 9.67393065293044
56.56408050241639 58.87734178640204 42.624022013154374
36.1354468095317 34.51360963407518 163.62061714710927
80.11331172904876 41.73646344077387 68.61977361857275
84.10952630808626 29.107503126513105 39.63674812022772
11.766053444746175 29.83433677926984 73.09551609071569
20.605579961935383 19.03741170186462 176.6540944653194
42.982614356777454 63.63971562012904 100.41343481956328
47.51639914757118 39.47087729578297 104.58041069367461
33.98991823153516 66.98232851368144 181.88063687176842
69.47129852539501 19.219561563930796 8.94468612332434
52.99405137133406 87.48659078556734 137.51780635578743
79.91434881563039 68.57498112745286 132.44790083835082
61.86361036009797 76.4373264527815 183.1178131436053
21.515387152208337 13.01241978556723 61.76454777464474
9.71118938790794 40.624027697947206 64.72699956812352
88.94031740335899 87.4543926785402 38.90018523586292
14.512771377937053 89.53530906200162 74.12894137171189
44.86888396482046 15.319030863028134 34.11939772012208
35.532468608782686 46.93515690088758 59.28019935854631
44.4488022867363 23.087634684193173 183.35617902996702
8.308442240852113 69.44906124242186 84.1449553075364
54.56387675542712 25.54601417735237 54.277266797563314
63.891850479757935 43.2699483118524 173.83834002888545
19.806262579743084 91.77161912263192 155.62944029162233
10.341763244889053 68.96487932461253 159.4548769484549
12.106004023929163 31.547678179303013 185.98216346400596
68.34303706213913 91.56807536314807 23.21110000386552
9.40333651572764 24.95810127637567 94.21918491460042
61.062586893519715 33.641392228029446 92.56669418974246
29.83829551023877 13.804736778455725 28.061844307236996
50.63377367284389 82.8033253968239 169.86588144377154
67.0428942694877 12.550500520245345 117.24610632546866
48.56423524638394 8.173383713557936 63.43808227297268
44.14103919154244 21.911557924966264 127.91259712302997
42.4961606858041 15.785696374256554 71.03493455074158
22.92559992970123 13.802217856531673 78.17328593634615
21.098531434721522 14.24430376210844 125.46985875665995
53.46323752052592 8.459502232724388 114.58018391560125
10.407957489512492 31.390703467794616 38.412589456576875
68.07121549206364 85.08291022415163 164.5323189936248
35.53975086476895 80.43727361318003 10.916868834456315
16.78861958877241 45.516549452580435 173.88441980422326
26.547411226834875 54.403063226697675 136.826205892059
9.63337937280531 91.15700283308664 130.46169945957163
46.462981578877944 71.33046640228758 148.467410800034
25.59537254163336 63.1613444340795 24.02953315734002
34.41949157372482 38.86631122952816 182.50489589179324
10.65235208372808 20.5914451262063 120.31847147453611
65.48825657394343 89.35489252035408 55.20273052030934
74.22052166208039 75.13194036841222 78.12651542686443
64.59548006974292 68.32878545626274 170.76314859793766
36.41878282215173 65.05083325486083 37.29312601945457
10.211920523192608 14.869430115554263 74.80642609705609
7.404420417359356 63.69206473254886 97.44838718001382
85.26066264750102 86.00655173180739 82.2467912624285
84.39526816912044 23.638339921062702 116.58442838438286
86.34980549012775 63.112586710436034 72.21906844525392
86.53337425449587 15.577782385452004 60.36434692943034
18.73746996369529 70.60683517595795 78.3978827950316
10.828480346632706 29.262387161084565 110.62151081534833
73.39781064863902 18.18736962875491 41.619299710986844
59.68495199335771 67.38902726281222 136.62393924419356
17.83464844881154 26.354937802684844 50.52315399083275
46.79919564151156 73.31141441251313 62.62647487335169
83.28398741285727 75.65124479523149 14.027394229966426
63.246391675042176 55.2440468984243 60.89032709771675
20.784762513846314 57.982728850539914 51.03200967295362
31.74311689160593 90.55286881470178 130.08894681002232
63.03538845461896 91.23359291466198 12.588748391101268
87.87247184667243 11.271753579499006 74.85166907974482
34.94512556952156 87.8951245932264 81.07864474487923
19.742647592173576 86.76206666919406 179.61763971584332
21.87608926450694 79.94350804599013 59.5764179200153
56.43845702741775 62.885957858699086 119.39666994020725
69.01926947623687 85.4602975779073 41.33130368335811
66.41234463874058 10.089004165185473 99.00648963664068
41.25235686598001 51.82701889338611 142.31493786632345
28.58576256066443 48.579492593406854 177.25929144225142
21.08210305544919 32.7553424181487 137.56455678339407
81.65769195939303 83.89717282775636 132.29855558421596
61.35335622640845 56.06274933618364 94.46710165493172
40.64451309712743 53.35838556097876 159.9865485149062
66.8152989718076 22.434784283581532 87.8619440652522
73.47358101996744 44.99624739824271 22.368215251627532
80.49514229326552 64.85236355453588 115.75905569651906
72.8069336779227 9.739296945683614 65.41309819670674
72.86732317962353 57.323741817505564 95.87067223134447
32.16153465570667 26.59613884238346 30.244973330562473
73.5796563282542 82.64712767584486 86.92652099251305
51.433931804775426 52.36215829959417 67.86950096000022
44.63458108330698 46.26678076753945 9.291571894917771
66.74922059856313 51.29644086107902 163.09404985023107
89.4857719735324 15.74173761045137 147.16353008457537
68.72356974606616 20.534597227779155 184.99700267786025
88.5137692754204 89.50828527643388 110.740399744686
11.795817675690074 40.25956007705101 22.69546566764603
11.493617613865 75.2323039601747 98.4374663236211
13.066894379259567 12.059773719547081 88.3892614425124
64.87239757602843 40.636193895793525 75.75719170361928
83.66685801509973 77.3511904337875 169.4869876938304
54.941201738744724 39.37787074457405 182.7206127629282
75.87569521465664 49.3593671049436 180.41642913033127
73.36320700158271 48.697904669268866 153.30272524817045
65.37810753265622 26.744611895934707 118.77582769107126
32.81667659477215 6.511712088629164 41.64060114170066
19.622518966041017 54.784065426146434 78.21440929356571
61.38448871055716 48.670822228142455 141.4280017813203
83.32276825387568 88.79178401387804 17.25848296714488
38.37936646045128 31.376694301472785 85.39552340347551
23.67770460170453 52.20582217217699 36.76106134000716
81.80717500838514 66.45356868310724 24.65889860835469
79.00974589603274 7.636836124901535 141.44987043737234
17.212179876930172 73.39021031730418 190.61756600526775
48.396939725504055 23.379079793314805 20.183309673852122
41.210772938569264 60.16711549783726 17.95641908001599
44.61151959311838 17.9776297421792 107.5590720917023
9.85903489657607 70.39286155953204 14.322962962365402
75.7279985215477 92.06168521038573 151.47602694649248
72.38203947395371 8.165180026254127 182.75505677095512
81.4706632391437 86.66032606132728 143.66544958909304
24.259384244828496 30.762005444254157 180.50191001171356
10.686140037577267 38.98431667665092 120.39919138420103
92.45902186993622 32.96024341184951 94.26018918352864
92.44444982762343 87.58273885591154 142.26301723951528
45.15602609292283 91.04934560976037 23.624769483370457
19.15068103802444 80.65117772587249 91.16197068963541
14.010896252570468 10.259799309188443 169.44468901137668
9.37926900268071 64.87931474054723 62.13619691809965
74.94729457474327 17.907712545078688 150.57895203138582
88.3648706137917 8.641614747478625 191.00427364362795
94.59943002123347 82.98469334855791 175.67876726873934
[...]
POINT_DATA 1192
SCALARS Diameter double
LOOKUP_TABLE default
11.989360399740931
11.976596435422946
11.964666615069085
11.929529969196727
11.928761798713914
11.922683280636011
11.894296852662317
11.884098718883305
11.875460081457158
11.874384922256745
11.862488250123718
11.814046477250702
11.806563944606289
11.799490787647779
11.797384801356271
11.788110953017187
11.779963016396259
11.778366429294504
11.755030466733373
11.747941466586859
11.746710634220067
11.739636587081648
11.68983939632228
11.689315224655346
11.689248763614906
11.667998586560095
11.639121712678797
11.612870643651904
11.556266256787229
11.543839539645365
11.54353110382959
11.540227997593927
11.527395103515463
11.52197086653568
11.513389535918911
11.51133498338394
11.497776212899893
11.488516442897781
11.48607854169129
11.477438018327613
11.446592498703836
11.442561565712477
11.393787533873475
11.391100337405039
11.378505338493726
11.331395291522789
11.271730462242509
11.241370262057497
11.238552288781143
11.223480094467927
11.202702607083443
11.195631421455273
11.18371731377428
11.10377766363683
11.070898937407968
11.06043401498582
11.022801721039976
11.02275067757032
11.017778107222226
11.012915805701217
11.007585989432956
11.003537659680335
10.962891282384486
10.958278942887393
10.955338652286335
10.935809630261637
10.93212404490092
10.928635190998541
10.928111477588669
10.919440040138442
10.915652974898954
10.915302604752583
10.90678643820318
10.893222139412522
10.88267603647428
10.872476666010426
10.83455947939602
10.772589294238262
10.768855519858224
10.764190617590735
10.74878305623464
10.74389718820209
10.738114776478298
10.727967157270223
10.726622348940122
10.713886081615145
10.696926168653505
10.684970684004055
10.647005177379189
10.635512628274558
10.62704683956613
10.626070375232565
10.624815039245549
10.623960568452942
10.616125462599374
10.590204829064943
10.588517891257577
10.579752843973067
10.57848298395021
10.56707088216159
10.560010355996003
10.540106375979823
10.495246760661141
10.494658241892683
10.480893837764148
10.444511725530326
10.432823884742316
10.42351017224069
10.415550940997822
10.392150804396728
10.391251938603416
10.390484852699855
10.389476290433295
10.360115730666687
10.345821375086
10.308302319895686
10.304046465023768
10.29437946054242
10.285064433532437
10.272145873203756
10.268916248111292
10.245058976448217
10.226801830783998
10.226096290836077
10.219334555825354
10.218082127795
10.184928534589798
10.171738094610415
10.168945378992396
10.167170331932848
10.161587924461053
10.142330160369502
10.13784212465511
10.111476513516443
10.103376095075967
10.09994090728809
10.070091156575902
10.0663950737876
10.065625490366436
10.043848423561176
10.034851842317744
10.030581124887641
10.030350977103154
10.018458490069634
9.995839976146417
9.977466997501926
9.971605183160875
9.960612548471236
9.952220731203337
9.948452346968946
9.948372714656806
9.939165608118863
9.930800272182601
9.919905996726586
9.917170613472386
9.906273822162621
9.898941373757342
9.897445230414354
9.892165884142418
9.86800583535303
9.866403992005827
9.857897421609831
9.845046835624299
9.829805171108745
9.817484835906864
9.81371360238052
9.805870024247652
9.805244426741456
9.801085792032493
9.799439055016432
9.798515265500848
9.791891764548904
9.785815987415631
9.766841439807992
9.741861232470841
9.740811862083941
9.719461287219833
9.7184456805585
9.711756973304755
9.705209491083696
9.698157098775203
9.697367676767222
9.694027115357823
9.65576858375739
9.653650865592521
9.640512512370593
9.617155962969761
9.599140684584361
9.595662020895006
9.59206734711286
9.577530373015318
9.560107049773823
9.56007065478187
9.548154074797404
9.539467035543531
9.534833494266975
9.53282966681864
9.528116432217647
9.527523269866768
9.524704384059088
9.515602941230513
9.466677448426815
9.457027651753288
9.448859779346794
9.444980102696348
9.436915614706258
9.43408104466766
9.43407916178764
9.426099678423824
9.425829678533285
9.413492995431813
9.411819429813272
9.403098960525075
9.399087247752469
9.391962661132894
9.380446513198995
9.357567558731631
9.334170325430534
9.330501447947656
9.326618163801944
9.309036371001937
9.307557647128036
9.289370242849499
9.28657429149547
9.276360268055678
9.274880219282206
9.271827850732759
9.270435047278339
9.26460806324331
9.253184447737471
9.241245053211033
9.23065705215518
9.224208654992578
9.21236434683928
9.208544432302373
9.207895417943758
9.20407810824353
9.197985991281232
9.182552590408418
9.173891218539815
9.173868379065533
9.168373376148342
9.160428764389032
9.160294696337637
9.149754110568871
9.147554811970151
9.146750450281118
9.145934207445938
9.143604112989713
9.143554509306982
9.142623184580133
9.136915621996923
9.127022405245313
9.119073900145377
9.117946198332627
9.117391274953345
9.112278851365055
9.10956513889695
9.106249128817218
9.105036799491224
9.104038545358705
9.090264168985424
9.07693695670122
9.070987039050944
9.068771718836697
9.066157007097733
9.06241492037747
9.061293048861835
9.047990911630258
9.044555975605007
9.036865523761735
9.030545159637631
9.014092949570873
9.008656275884757
9.003817127190539
8.989844433643139
8.977172245807886
8.973305689311324
8.964839697335776
8.933932122514962
8.916800408049456
8.915705138323972
8.914861704338943
8.898821418371215
8.895595827903458
8.893905263459379
8.880349963464909
8.865888234579128
8.86285354980736
8.85687678214487
8.85579505134602
8.85574585281907
8.855543204345832
8.847874478642497
8.84114165569974
8.83077476630761
8.83064476573052
8.827520302425611
8.821351749897008
8.818864316498756
8.814672944172997
8.813577227915633
8.812896979216694
8.810464469213361
8.80987257384919
8.798222200433038
8.797658986916336
8.793948817862164
8.787622303603245
8.785755970437492
8.774090771971238
8.766498610547345
8.757791033161176
8.741251134393046
8.735782552224645
8.729610068576948
8.725322719355542
8.715924370211852
8.710346115277861
8.709975453546301
8.699104985143027
8.69813303340845
8.687811376846064
8.683244983522695
8.681411713527364
8.68138484704101
8.673292829086552
8.670414664480985
8.66219488606175
8.660614973807862
8.66041854642823
8.658847675994183
8.652070619677238
8.64718516505173
8.639948679213385
8.632854605302043
8.63249732855113
8.622044930052853
8.620347075964409
8.612889122215291
8.612579590666755
8.606899059768153
8.596259620929859
8.587696045398033
8.587329914174681
8.58295446005327
8.578759729108754
8.575459659440032
8.573530480368616
8.57030425176092
8.566730036879177
8.560940529902194
8.558838776760165
8.557697007164982
8.555640761560458
8.553174901893724
8.549083814626972
8.547688259992878
8.52902158728294
8.524511126161885
8.524096373446717
8.522568561390848
8.512452439683559
8.479926483999359
8.47223741092685
8.468429397169402
8.461434991085763
8.454072019058414
8.453099284582057
8.441664770208758
8.437648516333677
8.434868790558234
8.433144921196165
8.426248413239241
8.420835383455591
8.417052173367704
8.412354312313497
8.404997725911745
8.40197443555473
8.394124381037482
8.39002574775315
8.387931431501707
8.383387573315346
8.379228696818373
8.367376474859293
8.367116167688817
8.361909408461027
8.357119558565891
8.352004241459493
8.348467871765592
8.340160175449764
8.338651425471472
8.323053277017603
8.313325870654072
8.312953277723015
8.28956243782731
8.285646454563143
8.28543471515099
8.285261685983448
8.284041325061649
8.279889291862693
8.278786413321352
8.277376785794164
8.276900724437196
8.274706283338096
8.273071881069361
8.269841650995538
8.260249768266132
8.259918877876261
8.250529176470375
8.245081464269173
8.23537102341897
8.232814257461179
8.231898510685507
8.230188100025227
8.229886925154336
8.228386195404791
8.224768320670103
8.218092540592671
8.215336645860795
8.20777638406403
8.201355971577419
8.200811061408906
8.197579677796798
8.195124242776911
8.190543549879877
8.190471929597424
8.189502295745237
8.187873118460253
8.187523791621391
8.183338071161655
8.181549691405095
8.18148240896612
8.181018063330843
8.178271794666342
8.176520895493216
8.17345806190939
8.166976266410956
8.149589351898083
8.133412815428613
8.131639730553662
8.120074802861858
8.118959400123543
8.117560180240988
8.115277781277872
8.109667321777904
8.107312243063875
8.086480231347036
8.074506472891539
8.074142313473
8.065817766916258
8.06273735871805
8.060007226738872
8.050702082925195
8.047024842727346
8.04602577698218
8.039303882553735
8.037301291949516
8.031035610564272
8.028042913144589
8.019843164863946
8.01275245299586
8.00958226697588
8.009054730789309
8.006102119988364
8.005792430771795
8.003415108020368
8.002683515283795
7.999312315374329
7.98712652685165
7.96925141939222
7.968417033900009
7.965077476381154
7.957316453962652
7.957002485535065
7.95258199090236
7.9514666713818425
7.940333971529274
7.938038454584614
7.930148793115613
7.9295928424232525
7.926435324609928
7.9262346724308035
7.920867285431875
7.920749775129507
7.9179348371092075
7.906373049187411
7.89624756121781
7.892717237336701
7.885248840757672
7.885185943397649
7.882658093441558
7.8750411501205875
7.868182215929165
7.86769963250045
7.86385524413568
7.862391817861255
7.860692317927872
7.858005746771318
7.856021563713785
7.844773983394188
7.838370700103095
7.826813303702834
7.826297842679566
7.821151442811268
7.814063942976668
7.813335193450211
7.805130449697041
7.795742931058076
7.79405630292824
7.79206055615162
7.7857207111159115
7.778161792779677
7.771723464199505
7.769416174914021
7.765672216394888
7.7625653748495775
7.762188625069472
7.745474666257623
7.744348079838667
7.739659584091453
7.7384449640873685
7.738242744076411
7.736651876874992
7.735008862425015
7.719431232221373
7.714625160220581
7.693178248158178
7.670967533834514
7.6694363758185045
7.663844497807343
7.659040065397864
7.658344775300425
7.6518888451464715
7.647838376462698
7.633734194159714
7.629777158792422
7.628490567546073
7.624385848953102
7.6153676822365615
7.612908190306099
7.611231927780463
7.610501619447062
7.609073366134242
7.604730871041508
7.596834308047054
7.588162189757231
7.586750423446755
7.5845056245182905
7.581677550776078
7.571041471109584
7.562102545765962
7.557739771643099
7.556791444644095
7.555382881643452
7.555331657171141
7.5503630659227365
7.5481403985615145
7.545212041277972
7.535087293459387
7.530433160207736
7.529391432080191
7.526591824018901
7.521796448420851
7.51946656679459
7.5189774453834755
7.517738765989426
7.513706890637934
7.510135673156327
7.509566053889498
7.508022591035795
7.507643141216134
7.500640953142568
7.480008837017545
7.478096700494409
7.466690729621227
7.466108476325255
7.453936032969367
7.446894916607305
7.444372565478485
7.441678143085966
7.437317299274653
7.4346123451200095
7.425204472214006
7.4217535821679625
7.419178499868197
7.4114267914264875
7.409128469255147
7.4078938559719045
7.401700457727239
7.40155220020894
7.390294867663293
7.389152224129555
7.389139579845045
7.388066509538755
7.381700843245907
7.375917894544001
7.374648799723417
7.369038322498483
7.36897971959454
7.365254062395807
7.365202840365617
7.364156631669635
7.363788669162515
7.357953303702253
7.356282973498821
7.3515303504764145
7.344296474431742
7.336346691688706
7.333981553158204
7.331805029927164
7.327827992569
7.32718906070405
7.325473180137569
7.3231201106799295
7.32238451861077
7.315161002945375
7.31489183526557
7.312509539977077
7.310827626451209
7.308474487843247
7.307312891199791
7.30207974784766
7.3008915509974255
7.298075279957992
7.292898400208719
7.284632328615441
7.283273453478811
7.282974496255964
7.278668371042549
7.276087560638366
7.2711637168962735
7.269391805836562
7.269225232669331
7.266693620808951
7.264513447979734
7.248708118546699
7.24583727228347
7.244242240451689
7.242112279832211
7.237959994799748
7.233591752068558
7.232548978183212
7.231627070344317
7.229340464579432
7.2263104781757175
7.225879788579068
7.225297991319685
7.218581536653707
7.214132821259341
7.2092679730437474
7.208238887024306
7.206131388090897
7.199214295161648
7.198240071047088
7.196230011465259
7.195688387178282
7.191685846108235
7.189382543694336
7.187887088047878
7.186828044496025
7.1814226126766005
7.173153964494485
7.172619682371858
7.168474594398049
7.164151616982355
7.162798576317545
7.160600090090215
7.150838736301374
7.147473808996082
7.146030644844989
7.144928557510461
7.1427977268433525
7.138792056757772
7.137626620820326
7.13312565300046
7.132876347969334
7.13272105058811
7.132698905612607
7.1286347831412815
7.123914869445249
7.122520098538171
7.11868844814099
7.118024633003056
7.1173752624749005
7.117111604801204
7.116647806030077
7.114829471899089
7.1088812843115186
7.105698313213109
7.1034747086204035
7.101063943318872
7.100602709547314
7.098812073083989
7.096154080092411
7.0951773412924855
7.090909816889286
7.086552252069893
7.086072899199419
7.08240389701793
7.0788405819646005
7.074691032527877
7.0730621716187425
7.067913894689319
7.066848939401488
7.063188978444421
7.054968235382425
7.052294501787415
7.051430291452185
7.050793651175194
7.041934733158431
7.040001745123865
7.039809869291817
7.036921226980121
7.035649525582251
7.034036380938948
7.02972089152241
7.0253552358285525
7.020944667705663
7.020073689668225
7.013014756116011
7.012199140063626
7.010170278856994
7.007710735692201
7.0021454768238165
6.999352032630106
6.99717222379943
6.996272066667962
6.994811073817529
6.994768286134704
6.992041990631676
6.991961530750094
6.989958544895129
6.988365800217519
6.986456464415075
6.986245313502591
6.980674818768634
6.9799949382191215
6.979730591426403
6.9787561039126516
6.976715849456232
6.976517826191085
6.966409568577986
6.964440918262789
6.962548572065543
6.958570336373299
6.95787465368462
6.9576734314636015
6.9567821193721135
6.950895750230059
6.948349380924327
6.943652743088945
6.9408118148760485
6.922451814155687
6.917803759928356
6.916806779358587
6.915403798153333
6.909879312758502
6.90839839271424
6.907263987512951
6.904961706526901
6.90384961360553
6.903499026151762
6.901808582973399
6.896394562636139
6.894661612300596
6.888132501206099
6.883461772259097
6.882951127702878
6.867580068587621
6.866534457553627
6.86086603100915
6.859794710300182
6.857294055246483
6.85707862684629
6.856460169476789
6.852376594731179
6.849729216187755
6.849177735741106
6.845573443732661
6.8436333391111175
6.841475151175059
6.839732598142845
6.839567134574015
6.838991493655438
6.835159228193031
6.831011161130361
6.828449087330989
6.827807070845632
6.822543165024426
6.8189083780620505
6.818231999472179
6.817344869576948
6.816134216729351
6.8104254628189675
6.80743348865658
6.806088080795389
6.8053978203383085
6.804862255471047
6.804211154654933
6.803758209616722
6.803594686711795
6.803504830606527
6.797931337459163
6.796888554397523
6.790954843761936
6.787476761302032
6.781315814720694
6.7805545150488395
6.780057902532921
6.777766887165127
6.776810481258414
6.771161900945648
6.769046072376538
6.760246707094171
6.759847278658263
6.753926794317761
6.751024402428066
6.750587884446773
6.74737316861523
6.742404037360207
6.742027509875123
6.74175868110293
6.739421340618353
6.735729647551521
6.730412383028637
6.729539629680884
6.729014226661743
6.723368992749155
6.720190350785367
6.719789790984018
6.719434845746816
6.719151392609938
6.718357888561512
6.711255746753457
6.708426040116382
6.704979006340028
6.703116722009829
6.701798653092025
6.701590236928555
6.697501152205081
6.695509727525232
6.695454739004793
6.694103962048457
6.689062383497331
6.688945890677756
6.6881592048098675
6.688137265359552
6.687178285567764
6.685231832628748
6.684993076207613
6.684613219781161
6.671594484948708
6.669690785995828
6.668034371350207
6.667839437118091
6.666550705852585
6.663557868151175
6.661817931748351
6.661668876688879
6.659408214698047
6.658714046204694
6.658514857736492
6.656300356957886
6.653650035643159
6.651099940544659
6.650952893973506
6.647444945299435
6.642321902897294
6.640447443821531
6.639216297199743
6.638556180944471
6.636731059263006
6.6350289865584235
6.631521283385169
6.630093769914159
6.629479185725019
6.628865281179755
6.628733864308289
6.627326039566237
6.627184599546149
6.624898962443339
6.622027657193854
6.619120231579815
6.617846094976002
6.617012383187086
6.615620619186206
6.614607520259174
6.611275310620085
6.603762168966467
6.599986452805769
6.596597991327275
6.590500610145307
6.58936261694247
6.582319337102602
6.581238338738064
6.579498742606146
6.572821867267617
6.570096463024812
6.567422432028616
6.561492103905
6.561376749262113
6.560883979147903
6.560047218989822
6.55935435482195
6.557026221156127
6.556545037435537
6.553372569143437
6.552374150661384
6.551445023151992
6.549206239444818
6.545657219131775
6.544401780399432
6.539347186333206
6.5378970743549765
6.536892397615693
6.536244370347651
6.534573757910755
6.533369655190498
6.5316013834610285
6.528842891599798
6.528129119147132
6.526514919786564
6.526384403255425
6.525693286865247
6.524828303798676
6.516773514274498
6.515504783933897
6.5110078988261195
6.510636196796681
6.496159635177021
6.493516455720208
6.493420652210412
6.489569082355986
6.489180267410569
6.487197450057664
6.486573943746684
6.483585281373529
6.48212725061403
6.478974068171968
6.477952603937458
6.476496280403639
6.474952582137912
6.471928024208344
6.467613208787387
6.4629900655864
6.462286868598771
6.460871408854027
6.4590434202075215
6.456068896329553
6.454620901286546
6.452242344250701
6.447533976896731
6.445759114415138
6.444740794142341
6.43925280445885
6.4315403506842195
6.431314432858478
6.424766770312859
6.423966795997746
6.423478264663411
6.41951463745812
6.415693061435904
6.415690825953763
6.413054049246743
6.412072417604569
6.411653650168629
6.408707872796141
6.407378960253805
6.40720562410087
6.406128359169547
6.403805325364933
6.400847417239518
6.395865367005201
6.390417104202676
6.388300921118495
6.385203844215029
6.379174289816584
6.377789113204029
6.376882855894388
6.376010153723426
6.37590588950076
6.364926482321605
6.364331846402778
6.3595638706400885
6.3594442761945205
6.353363283930555
6.3471933082409
6.347114675508551
6.34665848861388
6.343879609806567
6.343639625869953
6.34127298459863
6.338478597177193
6.334452674528044
6.334368344327359
6.333455811528361
6.331847533989096
6.331669314404921
6.330035404083283
6.328969473136003
6.327026451142293
6.320959600799187
6.3196732954080375
6.317232293686429
6.317096067112523
6.316518021894225
6.316135994240986
6.3145506761776655
6.314276400758196
6.305969508680338
6.30532392749379
6.304294728080139
6.303704625265021
6.303437338072474
6.299956433895385
6.299340100061592
6.293798856964839
6.293256087285471
6.2926968714699445
6.2902468636131195
6.283064226954823
6.27573208809659
6.275613453496705
6.273341917770036
6.270687472457768
6.26851568071686
6.264501346314006
6.263164325756696
6.260374516457255
6.25713928376676
6.254857470462559
6.253787412563971
6.253737892321833
6.250085450040733
6.249336725404948
6.2482722856358865
6.2462946525589675
6.245406618378356
6.245051612579983
6.242835176901261
6.242386793722577
6.24177466399892
6.2359767922888345
6.234389829843661
6.230530820058986
6.228182219909963
6.2274601412623225
6.226709696781219
6.2242061390081815
6.224028382423861
6.223990162449686
6.223484183166054
6.222243622651316
6.222097316519559
6.220778599126122
6.218777607987311
6.217734351471991
6.217089179718784
6.2163242241224825
6.214849287178735
6.211471026093122
6.210514312423932
6.20800361184792
6.2065708012816625
6.20428727520117
6.201479972694452
6.197720901755915
6.195310131046877
6.194459124659357
6.191272836026528
6.19086050540958
6.189885662564469
6.189094403815355
6.187264744020609
6.184962925366854
6.18128869612791
6.178792682741179
6.175702300173377
6.174599331572651
6.1743824026100285
6.173978417059139
6.173383713007582
6.173221252510181
6.168928558367645
6.166189721298488
6.163654792814066
6.161856939303925
6.159478733808083
6.156942096006379
6.156380194097556
6.153846666347134
6.153582011514506
6.152617541552273
6.151356986867289
6.148256083081742
6.147444310457713
6.14613939397951
6.144116839701365
6.143144838888313
6.142638423618289
6.141671269725527
6.14011910937036